 vasp.5.4.4.18Apr17-6-g9f103f2a35 (build Dec 07 2017 12:23:07) complex          
  
 executed on     UA-Leibniz-2016b date 2018.11.07  16:49:14
 running on   28 total cores
 distrk:  each k-point on   28 cores,    1 groups
 distr:  one band on NCORES_PER_BAND=   1 cores,   28 groups


--------------------------------------------------------------------------------------------------------


 INCAR:
 POTCAR:    PAW_PBE Li_sv 10Sep2004               
 POTCAR:    PAW_PBE Mn_pv 02Aug2007               
 POTCAR:    PAW_PBE O 08Apr2002                   

 ----------------------------------------------------------------------------- 
|                                                                             |
|           W    W    AA    RRRRR   N    N  II  N    N   GGGG   !!!           |
|           W    W   A  A   R    R  NN   N  II  NN   N  G    G  !!!           |
|           W    W  A    A  R    R  N N  N  II  N N  N  G       !!!           |
|           W WW W  AAAAAA  RRRRR   N  N N  II  N  N N  G  GGG   !            |
|           WW  WW  A    A  R   R   N   NN  II  N   NN  G    G                |
|           W    W  A    A  R    R  N    N  II  N    N   GGGG   !!!           |
|                                                                             |
|      For optimal performance we recommend to set                            |
|        NCORE= 4 - approx SQRT( number of cores)                             |
|      NCORE specifies how many cores store one orbital (NPAR=cpu/NCORE).     |
|      This setting can  greatly improve the performance of VASP for DFT.     |
|      The default,   NCORE=1            might be grossly inefficient         |
|      on modern multi-core architectures or massively parallel machines.     |
|      Do your own testing !!!!                                               |
|      Unfortunately you need to use the default for GW and RPA calculations. |
|      (for HF NCORE is supported but not extensively tested yet)             |
|                                                                             |
 ----------------------------------------------------------------------------- 

 POTCAR:    PAW_PBE Li_sv 10Sep2004               
   VRHFIN =Li: 1s2s2p                                                           
   LEXCH  = PE                                                                  
   EATOM  =   202.7858 eV,   14.9043 Ry                                         
                                                                                
   TITEL  = PAW_PBE Li_sv 10Sep2004                                             
   LULTRA =        F    use ultrasoft PP ?                                      
   IUNSCR =        0    unscreen: 0-lin 1-nonlin 2-no                           
   RPACOR =    0.000    partial core radius                                     
   POMASS =    7.010; ZVAL   =    3.000    mass and valenz                      
   RCORE  =    1.700    outmost cutoff radius                                   
   RWIGS  =    2.050; RWIGS  =    1.085    wigner-seitz radius (au A)           
   ENMAX  =  499.034; ENMIN  =  374.276 eV                                      
   ICORE  =        2    local potential                                         
   LCOR   =        T    correct aug charges                                     
   LPAW   =        T    paw PP                                                  
   EAUG   =  628.945                                                            
   RMAX   =    1.732    core radius for proj-oper                               
   RAUG   =    1.300    factor for augmentation sphere                          
   RDEP   =    1.728    radius for radial grids                                 
   RDEPT  =    1.329    core radius for aug-charge                              
                                                                                
   Atomic configuration                                                         
    4 entries                                                                   
     n  l   j            E        occ.                                          
     1  0  0.50       -51.8549   2.0000                                         
     2  0  0.50        -2.8742   1.0000                                         
     2  1  0.50        -1.3606   0.0000                                         
     3  2  1.50        -1.3606   0.0000                                         
   Description                                                                  
     l       E           TYP  RCUT    TYP  RCUT                                 
     0    -51.8548813     23  1.400                                             
     0     -2.8742052     23  1.700                                             
     1     -1.3605826     23  1.400                                             
     2     -1.3605826     23  1.400                                             
  local pseudopotential read in
  atomic valenz-charges read in
  non local Contribution for L=           0  read in
    real space projection operators read in
  non local Contribution for L=           0  read in
    real space projection operators read in
  non local Contribution for L=           1  read in
    real space projection operators read in
    PAW grid and wavefunctions read in
 
   number of l-projection  operators is LMAX  =           3
   number of lm-projection operators is LMMAX =           5
 
 POTCAR:    PAW_PBE Mn_pv 02Aug2007               
   VRHFIN =Mn: 3p4s3d                                                           
   LEXCH  = PE                                                                  
   EATOM  =  2025.2664 eV,  148.8529 Ry                                         
                                                                                
   TITEL  = PAW_PBE Mn_pv 02Aug2007                                             
   LULTRA =        F    use ultrasoft PP ?                                      
   IUNSCR =        1    unscreen: 0-lin 1-nonlin 2-no                           
   RPACOR =    2.080    partial core radius                                     
   POMASS =   54.938; ZVAL   =   13.000    mass and valenz                      
   RCORE  =    2.300    outmost cutoff radius                                   
   RWIGS  =    2.500; RWIGS  =    1.323    wigner-seitz radius (au A)           
   ENMAX  =  269.864; ENMIN  =  202.398 eV                                      
   ICORE  =        3    local potential                                         
   LCOR   =        T    correct aug charges                                     
   LPAW   =        T    paw PP                                                  
   EAUG   =  569.085                                                            
   DEXC   =    0.000                                                            
   RMAX   =    2.343    core radius for proj-oper                               
   RAUG   =    1.300    factor for augmentation sphere                          
   RDEP   =    2.338    radius for radial grids                                 
   RDEPT  =    1.798    core radius for aug-charge                              
                                                                                
   Atomic configuration                                                         
    8 entries                                                                   
     n  l   j            E        occ.                                          
     1  0  0.50     -6424.8287   2.0000                                         
     2  0  0.50      -739.1154   2.0000                                         
     2  1  1.50      -625.3949   6.0000                                         
     3  0  0.50       -81.6100   2.0000                                         
     3  1  1.50       -50.4667   6.0000                                         
     3  2  2.50        -3.3745   6.0000                                         
     4  0  0.50        -4.1331   1.0000                                         
     4  3  2.50        -1.3606   0.0000                                         
   Description                                                                  
     l       E           TYP  RCUT    TYP  RCUT                                 
     1    -50.4666628     23  2.000                                             
     1     -1.3605826     23  2.000                                             
     2     -3.3744729     23  2.300                                             
     2     -4.7350555     23  2.300                                             
     0     -4.1331431     23  2.300                                             
     0      7.6656591     23  2.300                                             
     3      9.5240782     23  2.300                                             
  local pseudopotential read in
  partial core-charges read in
  partial kinetic energy density read in
  atomic valenz-charges read in
  non local Contribution for L=           1  read in
    real space projection operators read in
  non local Contribution for L=           1  read in
    real space projection operators read in
  non local Contribution for L=           2  read in
    real space projection operators read in
  non local Contribution for L=           2  read in
    real space projection operators read in
  non local Contribution for L=           0  read in
    real space projection operators read in
  non local Contribution for L=           0  read in
    real space projection operators read in
    PAW grid and wavefunctions read in
 
   number of l-projection  operators is LMAX  =           6
   number of lm-projection operators is LMMAX =          18
 
 POTCAR:    PAW_PBE O 08Apr2002                   
   VRHFIN =O: s2p4                                                              
   LEXCH  = PE                                                                  
   EATOM  =   432.3788 eV,   31.7789 Ry                                         
                                                                                
   TITEL  = PAW_PBE O 08Apr2002                                                 
   LULTRA =        F    use ultrasoft PP ?                                      
   IUNSCR =        1    unscreen: 0-lin 1-nonlin 2-no                           
   RPACOR =    1.200    partial core radius                                     
   POMASS =   16.000; ZVAL   =    6.000    mass and valenz                      
   RCORE  =    1.520    outmost cutoff radius                                   
   RWIGS  =    1.550; RWIGS  =    0.820    wigner-seitz radius (au A)           
   ENMAX  =  400.000; ENMIN  =  300.000 eV                                      
   ICORE  =        2    local potential                                         
   LCOR   =        T    correct aug charges                                     
   LPAW   =        T    paw PP                                                  
   EAUG   =  605.392                                                            
   DEXC   =    0.000                                                            
   RMAX   =    1.553    core radius for proj-oper                               
   RAUG   =    1.300    factor for augmentation sphere                          
   RDEP   =    1.550    radius for radial grids                                 
   RDEPT  =    1.329    core radius for aug-charge                              
                                                                                
   Atomic configuration                                                         
    4 entries                                                                   
     n  l   j            E        occ.                                          
     1  0  0.50      -514.6923   2.0000                                         
     2  0  0.50       -23.9615   2.0000                                         
     2  1  0.50        -9.0305   4.0000                                         
     3  2  1.50        -9.5241   0.0000                                         
   Description                                                                  
     l       E           TYP  RCUT    TYP  RCUT                                 
     0    -23.9615318     23  1.200                                             
     0     -9.5240782     23  1.200                                             
     1     -9.0304911     23  1.520                                             
     1      8.1634956     23  1.520                                             
     2     -9.5240782      7  1.500                                             
  local pseudopotential read in
  partial core-charges read in
  partial kinetic energy density read in
  kinetic energy density of atom read in
  atomic valenz-charges read in
  non local Contribution for L=           0  read in
    real space projection operators read in
  non local Contribution for L=           0  read in
    real space projection operators read in
  non local Contribution for L=           1  read in
    real space projection operators read in
  non local Contribution for L=           1  read in
    real space projection operators read in
    PAW grid and wavefunctions read in
 
   number of l-projection  operators is LMAX  =           4
   number of lm-projection operators is LMMAX =           8
 
 Optimization of the real space projectors (new method)

 maximal supplied QI-value         = 22.11
 optimisation between [QCUT,QGAM] = [ 11.28, 22.77] = [ 35.61,145.23] Ry 
 Optimized for a Real-space Cutoff    1.10 Angstroem

   l    n(q)    QCUT    max X(q) W(low)/X(q) W(high)/X(q)  e(spline) 
   0      7    11.276    10.506    0.54E-04    0.58E-04    0.16E-07
   0      7    11.276     8.367    0.11E-03    0.14E-03    0.35E-07
   1      7    11.276     8.983    0.23E-03    0.43E-03    0.86E-07
 Optimization of the real space projectors (new method)

 maximal supplied QI-value         = 16.25
 optimisation between [QCUT,QGAM] = [ 11.38, 22.75] = [ 36.24,144.96] Ry 
 Optimized for a Real-space Cutoff    1.47 Angstroem

   l    n(q)    QCUT    max X(q) W(low)/X(q) W(high)/X(q)  e(spline) 
   1     10    11.376     3.658    0.62E-04    0.11E-03    0.11E-06
   1     10    11.376     5.612    0.12E-03    0.20E-03    0.19E-06
   2      9    11.376    55.373    0.10E-03    0.85E-04    0.19E-06
   2      9    11.376    50.863    0.11E-03    0.88E-04    0.19E-06
   0     10    11.376    79.536    0.52E-04    0.21E-04    0.79E-07
   0     10    11.376    38.668    0.45E-04    0.19E-04    0.74E-07
 Optimization of the real space projectors (new method)

 maximal supplied QI-value         = 24.76
 optimisation between [QCUT,QGAM] = [ 11.39, 22.77] = [ 36.31,145.25] Ry 
 Optimized for a Real-space Cutoff    1.10 Angstroem

   l    n(q)    QCUT    max X(q) W(low)/X(q) W(high)/X(q)  e(spline) 
   0      7    11.387    20.381    0.22E-03    0.48E-03    0.18E-06
   0      7    11.387    15.268    0.22E-03    0.52E-03    0.19E-06
   1      7    11.387     5.964    0.22E-03    0.73E-03    0.24E-06
   1      7    11.387     5.382    0.19E-03    0.60E-03    0.21E-06
  PAW_PBE Li_sv 10Sep2004               :
 energy of atom  1       EATOM= -202.7858
 kinetic energy error for atom=    0.0143 (will be added to EATOM!!)
  PAW_PBE Mn_pv 02Aug2007               :
 energy of atom  2       EATOM=-2025.2664
 kinetic energy error for atom=    0.0062 (will be added to EATOM!!)
  PAW_PBE O 08Apr2002                   :
 energy of atom  3       EATOM= -432.3788
 kinetic energy error for atom=    0.0224 (will be added to EATOM!!)
 
 
 POSCAR: Li8 Mn16 O48                            
  positions in direct lattice
  No initial velocities read in
 exchange correlation table for  LEXCH =        8
   RHO(1)=    0.500       N(1)  =     2000
   RHO(2)=  100.500       N(2)  =     4000
 


--------------------------------------------------------------------------------------------------------


 ion  position               nearest neighbor table
   1  0.005  0.005  0.000-  41 2.06  33 2.06  58 2.08  31 2.09  68 2.10  54 2.10
   2  0.989  0.989  0.507-  32 1.97  53 2.04  67 2.04  34 2.08  42 2.08  57 2.28
   3  0.000  0.500  0.000-  29 2.04  60 2.04  35 2.08  66 2.08  56 2.09  43 2.09
   4  0.998  0.501  0.500-  55 2.04  44 2.04  36 2.05  65 2.06  30 2.09  59 2.09
   5  0.500  1.000  1.000-  62 2.04  27 2.04  50 2.08  45 2.08  37 2.09  72 2.09
   6  0.502  0.999  0.500-  38 2.04  71 2.04  49 2.05  46 2.06  61 2.09  28 2.09
   7  0.495  0.495  1.000-  70 2.06  52 2.06  25 2.08  64 2.09  47 2.10  39 2.10
   8  0.511  0.511  0.493-  63 1.97  40 2.04  48 2.04  51 2.08  69 2.08  26 2.28
   9  0.170  0.345  0.259-  35 1.84  51 1.89  41 1.89  65 1.89  25 1.90  57 2.12  19 2.85  21 2.89
                            17 3.02
  10  0.155  0.330  0.741-  66 1.84  42 1.89  52 1.89  36 1.89  58 1.90  26 2.12  22 2.85  20 2.89
                            18 3.02
  11  0.166  0.837  0.251-  59 1.90  67 1.90  43 1.90  27 1.90  49 1.91  33 1.91  19 2.87  23 2.88
                            17 2.89
  12  0.165  0.826  0.752-  44 1.88  60 1.89  34 1.90  28 1.90  68 1.90  50 1.92  18 2.85  20 2.87
                            24 2.88
  13  0.674  0.335  0.248-  55 1.88  29 1.89  69 1.90  61 1.90  39 1.90  45 1.92  17 2.85  21 2.87
                            23 2.88
  14  0.663  0.334  0.749-  30 1.90  40 1.90  56 1.90  62 1.90  46 1.91  70 1.91  22 2.87  24 2.88
                            18 2.89
  15  0.667  0.834  0.243-  63 1.90  31 1.90  37 1.90  53 1.90  71 1.90  47 1.91  19 2.88  21 2.88
                            23 2.88
  16  0.666  0.833  0.757-  32 1.90  64 1.90  72 1.90  48 1.90  38 1.90  54 1.91  22 2.88  20 2.88
                            24 2.88
  17  0.345  0.170  0.259-  45 1.84  69 1.89  33 1.89  49 1.89  25 1.90  57 2.12  13 2.85  11 2.89
                             9 3.02
  18  0.330  0.155  0.741-  50 1.84  34 1.89  70 1.89  46 1.89  58 1.90  26 2.12  12 2.85  14 2.89
                            10 3.02
  19  0.335  0.674  0.248-  71 1.88  27 1.89  51 1.90  59 1.90  47 1.90  35 1.92   9 2.85  11 2.87
                            15 2.88
  20  0.334  0.663  0.749-  28 1.90  48 1.90  72 1.90  60 1.90  36 1.91  52 1.91  12 2.87  16 2.88
                            10 2.89
  21  0.837  0.166  0.251-  61 1.90  53 1.90  37 1.90  29 1.90  65 1.91  41 1.91  13 2.87  15 2.88
                             9 2.89
  22  0.826  0.165  0.752-  38 1.88  62 1.89  42 1.90  30 1.90  54 1.90  66 1.92  10 2.85  14 2.87
                            16 2.88
  23  0.834  0.667  0.243-  63 1.90  31 1.90  43 1.90  67 1.90  55 1.90  39 1.91  13 2.88  11 2.88
                            15 2.88
  24  0.833  0.666  0.757-  32 1.90  64 1.90  56 1.90  40 1.90  44 1.90  68 1.91  12 2.88  14 2.88
                            16 2.88
  25  0.325  0.325  0.146-  17 1.90   9 1.90   7 2.08
  26  0.292  0.292  0.570-  57 1.43  10 2.12  18 2.12   8 2.28
  27  0.321  0.827  0.126-  19 1.89  11 1.90   5 2.04
  28  0.322  0.818  0.629-  20 1.90  12 1.90   6 2.09
  29  0.827  0.321  0.126-  13 1.89  21 1.90   3 2.04
  30  0.818  0.322  0.629-  14 1.90  22 1.90   4 2.09
  31  0.819  0.819  0.118-  23 1.90  15 1.90   1 2.09
  32  0.822  0.822  0.635-  16 1.90  24 1.90   2 1.97
  33  0.178  0.012  0.142-  17 1.89  11 1.91   1 2.06
  34  0.173  0.988  0.624-  18 1.89  12 1.90   2 2.08
  35  0.178  0.500  0.132-   9 1.84  19 1.92   3 2.08
  36  0.178  0.501  0.622-  10 1.89  20 1.91   4 2.05
  37  0.685  0.003  0.122-  15 1.90  21 1.90   5 2.09
  38  0.673  0.997  0.633-  22 1.88  16 1.90   6 2.04
  39  0.681  0.498  0.121-  13 1.90  23 1.91   7 2.10
  40  0.676  0.503  0.631-  14 1.90  24 1.90   8 2.04
  41  0.012  0.179  0.142-   9 1.89  21 1.91   1 2.06
  42  0.988  0.173  0.624-  10 1.89  22 1.90   2 2.08
  43  0.003  0.685  0.122-  23 1.90  11 1.90   3 2.09
  44  0.996  0.673  0.633-  12 1.88  24 1.90   4 2.04
  45  0.500  0.178  0.131-  17 1.84  13 1.92   5 2.08
  46  0.501  0.178  0.622-  18 1.89  14 1.91   6 2.06
  47  0.498  0.681  0.121-  19 1.90  15 1.91   7 2.10
  48  0.503  0.676  0.631-  20 1.90  16 1.90   8 2.04
  49  0.322  0.999  0.378-  17 1.89  11 1.91   6 2.05
  50  0.322  1.000  0.868-  18 1.84  12 1.92   5 2.08
  51  0.327  0.512  0.376-   9 1.89  19 1.90   8 2.08
  52  0.322  0.488  0.858-  10 1.89  20 1.91   7 2.06
  53  0.824  0.997  0.369-  21 1.90  15 1.90   2 2.04
  54  0.819  0.002  0.879-  22 1.90  16 1.91   1 2.10
  55  0.827  0.503  0.367-  13 1.88  23 1.90   4 2.04
  56  0.815  0.497  0.878-  24 1.90  14 1.90   3 2.09
  57  0.208  0.208  0.430-  26 1.43  17 2.12   9 2.12   2 2.28
  58  0.175  0.175  0.854-  10 1.90  18 1.90   1 2.08
  59  0.178  0.682  0.371-  11 1.90  19 1.90   4 2.09
  60  0.179  0.673  0.874-  12 1.89  20 1.90   3 2.04
  61  0.682  0.178  0.371-  21 1.90  13 1.90   6 2.09
  62  0.673  0.179  0.874-  22 1.89  14 1.90   5 2.04
  63  0.678  0.678  0.365-  23 1.90  15 1.90   8 1.97
  64  0.681  0.681  0.882-  16 1.90  24 1.90   7 2.09
  65  0.999  0.322  0.378-   9 1.89  21 1.91   4 2.06
  66  1.000  0.322  0.869-  10 1.84  22 1.92   3 2.08
  67  0.997  0.824  0.369-  11 1.90  23 1.90   2 2.04
  68  0.002  0.819  0.879-  12 1.90  24 1.91   1 2.10
  69  0.512  0.327  0.376-  17 1.89  13 1.90   8 2.08
  70  0.488  0.321  0.858-  18 1.89  14 1.91   7 2.06
  71  0.504  0.827  0.367-  19 1.88  15 1.90   6 2.04
  72  0.497  0.815  0.878-  16 1.90  20 1.90   5 2.09
 
  LATTYP: Found a hexagonal cell.
 ALAT       =     9.9963163228
 C/A-ratio  =     0.8228598387
  
  Lattice vectors:
  
 A1 = (   9.9963160000,   0.0000090000,   0.0017840000)
 A2 = (  -4.9981650000,   8.6570590000,  -0.0022840000)
 A3 = (  -0.0014680000,   0.0013220000,   8.2255670000)


Analysis of symmetry for initial positions (statically):
=====================================================================
 Subroutine PRICEL returns:
 Original cell was already a primitive cell.
 

 Routine SETGRP: Setting up the symmetry group for a 
 hexagonal supercell.


 Subroutine GETGRP returns: Found  2 space group operations
 (whereof  1 operations were pure point group operations)
 out of a pool of 24 trial point group operations.


The static configuration has the point symmetry C_1 .
 The point group associated with its full space group is S_2 .


Analysis of symmetry for dynamics (positions and initial velocities):
=====================================================================
 Subroutine PRICEL returns:
 Original cell was already a primitive cell.
 

 Routine SETGRP: Setting up the symmetry group for a 
 hexagonal supercell.


 Subroutine GETGRP returns: Found  2 space group operations
 (whereof  1 operations were pure point group operations)
 out of a pool of 24 trial point group operations.


The dynamic configuration has the point symmetry C_1 .
 The point group associated with its full space group is S_2 .


Analysis of structural, dynamic, and magnetic symmetry:
=====================================================================
 Subroutine PRICEL returns:
 Original cell was already a primitive cell.
 

 Routine SETGRP: Setting up the symmetry group for a 
 hexagonal supercell.


 Subroutine GETGRP returns: Found  2 space group operations
 (whereof  1 operations were pure point group operations)
 out of a pool of 24 trial point group operations.


The magnetic configuration has the point symmetry C_1 .
 The point group associated with its full space group is S_2 .


 Subroutine INISYM returns: Found  2 space group operations
 (whereof  1 operations are pure point group operations),
 and found     1 'primitive' translations

 
 
 KPOINTS: pymatgen 4.7.6+ generated KPOINTS with g

Automatic generation of k-mesh.
Space group operators:
 irot       det(A)        alpha          n_x          n_y          n_z        tau_x        tau_y        tau_z
    1     1.000000     0.000001     1.000000     0.000000     0.000000     0.000000     0.000000     0.000000
    2    -1.000000     0.000001     1.000000     0.000000     0.000000     0.500000     0.500000     0.000000
 
 Subroutine IBZKPT returns following result:
 ===========================================
 
 Found     19 irreducible k-points:
 
 Following reciprocal coordinates:
            Coordinates               Weight
  0.000000  0.000000  0.000000      1.000000
  0.333333 -0.000000 -0.000000      2.000000
 -0.000000  0.333333  0.000000      2.000000
  0.333333  0.333333  0.000000      2.000000
 -0.333333  0.333333  0.000000      2.000000
 -0.000000 -0.000000  0.250000      2.000000
  0.333333 -0.000000  0.250000      2.000000
 -0.333333  0.000000  0.250000      2.000000
 -0.000000  0.333333  0.250000      2.000000
  0.333333  0.333333  0.250000      2.000000
 -0.333333  0.333333  0.250000      2.000000
 -0.000000 -0.333333  0.250000      2.000000
  0.333333 -0.333333  0.250000      2.000000
 -0.333333 -0.333333  0.250000      2.000000
 -0.000000 -0.000000  0.500000      1.000000
  0.333333 -0.000000  0.500000      2.000000
 -0.000000  0.333333  0.500000      2.000000
  0.333333  0.333333  0.500000      2.000000
 -0.333333  0.333333  0.500000      2.000000
 
 Following cartesian coordinates:
            Coordinates               Weight
  0.000000  0.000000  0.000000      1.000000
  0.033346  0.019252  0.000003      2.000000
 -0.000000  0.038504 -0.000006      2.000000
  0.033346  0.057756 -0.000003      2.000000
 -0.033346  0.019252 -0.000009      2.000000
 -0.000005  0.000005  0.030393      2.000000
  0.033340  0.019257  0.030396      2.000000
 -0.033351 -0.019247  0.030390      2.000000
 -0.000005  0.038509  0.030387      2.000000
  0.033340  0.057761  0.030390      2.000000
 -0.033351  0.019257  0.030384      2.000000
 -0.000005 -0.038499  0.030399      2.000000
  0.033340 -0.019247  0.030402      2.000000
 -0.033351 -0.057751  0.030396      2.000000
 -0.000011  0.000010  0.060786      1.000000
  0.033335  0.019262  0.060789      2.000000
 -0.000011  0.038514  0.060780      2.000000
  0.033335  0.057766  0.060783      2.000000
 -0.033356  0.019262  0.060777      2.000000
 
 TETIRR: Found    106 inequivalent tetrahedra from      216


--------------------------------------------------------------------------------------------------------




 Dimension of arrays:
   k-points           NKPTS =     19   k-points in BZ     NKDIM =     19   number of bands    NBANDS=    336
   number of dos      NEDOS =    301   number of ions     NIONS =     72
   non local maximal  LDIM  =      6   non local SUM 2l+1 LMDIM =     18
   total plane-waves  NPLWV = 384000
   max r-space proj   IRMAX =   7292   max aug-charges    IRDMAX=  16566
   dimension x,y,z NGX =    80 NGY =   80 NGZ =   60
   dimension x,y,z NGXF=   160 NGYF=  160 NGZF=  120
   support grid    NGXF=   160 NGYF=  160 NGZF=  120
   ions per type =               8  16  48
   NGX,Y,Z   is equivalent  to a cutoff of  13.30, 13.30, 12.13 a.u.
   NGXF,Y,Z  is equivalent  to a cutoff of  26.61, 26.61, 24.25 a.u.

 SYSTEM =  unknown system                          
 POSCAR =  Li8 Mn16 O48                            

 Startparameter for this run:
   NWRITE =      2    write-flag & timer
   PREC   = accura    normal or accurate (medium, high low for compatibility)
   ISTART =      0    job   : 0-new  1-cont  2-samecut
   ICHARG =      2    charge: 1-file 2-atom 10-const
   ISPIN  =      2    spin polarized calculation?
   LNONCOLLINEAR =      F non collinear calculations
   LSORBIT =      F    spin-orbit coupling
   INIWAV =      1    electr: 0-lowe 1-rand  2-diag
   LASPH  =      T    aspherical Exc in radial PAW
   METAGGA=      F    non-selfconsistent MetaGGA calc.

 Electronic Relaxation 1
   ENCUT  =  500.0 eV  36.75 Ry    6.06 a.u.  18.23 18.23 15.00*2*pi/ulx,y,z
   ENINI  =  500.0     initial cutoff
   ENAUG  =  628.9 eV  augmentation charge cutoff
   NELM   =    100;   NELMIN=  4; NELMDL= -5     # of ELM steps 
   EDIFF  = 0.1E-05   stopping-criterion for ELM
   LREAL  =      T    real-space projection
   NLSPLINE    = F    spline interpolate recip. space projectors
   LCOMPAT=      F    compatible to vasp.4.4
   GGA_COMPAT  = T    GGA compatible to vasp.4.4-vasp.4.6
   LMAXPAW     = -100 max onsite density
   LMAXMIX     =    4 max onsite mixed and CHGCAR
   VOSKOWN=      0    Vosko Wilk Nusair interpolation
   ROPT   =   -0.00025  -0.00025  -0.00025
 Ionic relaxation
   EDIFFG = 0.1E-04   stopping-criterion for IOM
   NSW    =      0    number of steps for IOM
   NBLOCK =      1;   KBLOCK =      1    inner block; outer block 
   IBRION =     -1    ionic relax: 0-MD 1-quasi-New 2-CG
   NFREE  =      0    steps in history (QN), initial steepest desc. (CG)
   ISIF   =      2    stress and relaxation
   IWAVPR =     10    prediction:  0-non 1-charg 2-wave 3-comb
   ISYM   =      2    0-nonsym 1-usesym 2-fastsym
   LCORR  =      T    Harris-Foulkes like correction to forces

   POTIM  = 0.5000    time-step for ionic-motion
   TEIN   =    0.0    initial temperature
   TEBEG  =    0.0;   TEEND  =   0.0 temperature during run
   SMASS  =  -3.00    Nose mass-parameter (am)
   estimated Nose-frequenzy (Omega)   =  0.10E-29 period in steps =****** mass=  -0.228E-26a.u.
   SCALEE = 1.0000    scale energy and forces
   NPACO  =    256;   APACO  = 16.0  distance and # of slots for P.C.
   PSTRESS=    0.0 pullay stress

  Mass of Ions in am
   POMASS =   7.01 54.94 16.00
  Ionic Valenz
   ZVAL   =   3.00 13.00  6.00
  Atomic Wigner-Seitz radii
   RWIGS  =  -1.00 -1.00 -1.00
  virtual crystal weights 
   VCA    =   1.00  1.00  1.00
   NELECT =     520.0000    total number of electrons
   NUPDOWN=      -1.0000    fix difference up-down

 DOS related values:
   EMIN   =  10.00;   EMAX   =-10.00  energy-range for DOS
   EFERMI =   0.00
   ISMEAR =    -5;   SIGMA  =   0.20  broadening in eV -4-tet -1-fermi 0-gaus

 Electronic relaxation 2 (details)
   IALGO  =     38    algorithm
   LDIAG  =      T    sub-space diagonalisation (order eigenvalues)
   LSUBROT=      F    optimize rotation matrix (better conditioning)
   TURBO    =      0    0=normal 1=particle mesh
   IRESTART =      0    0=no restart 2=restart with 2 vectors
   NREBOOT  =      0    no. of reboots
   NMIN     =      0    reboot dimension
   EREF     =   0.00    reference energy to select bands
   IMIX   =      4    mixing-type and parameters
     AMIX     =   0.40;   BMIX     =  1.00
     AMIX_MAG =   1.60;   BMIX_MAG =  1.00
     AMIN     =   0.10
     WC   =   100.;   INIMIX=   1;  MIXPRE=   1;  MAXMIX= -45

 Intra band minimization:
   WEIMIN = 0.0000     energy-eigenvalue tresh-hold
   EBREAK =  0.74E-09  absolut break condition
   DEPER  =   0.30     relativ break condition  

   TIME   =   0.40     timestep for ELM

  volume/ion in A,a.u.               =       9.89        66.72
  Fermi-wavevector in a.u.,A,eV,Ry     =   1.474406  2.786224 29.577344  2.173873
  Thomas-Fermi vector in A             =   2.589181
 
 Write flags
   LWAVE        =      F    write WAVECAR
   LDOWNSAMPLE  =      F    k-point downsampling of WAVECAR
   LCHARG       =      T    write CHGCAR
   LVTOT        =      F    write LOCPOT, total local potential
   LVHAR        =      F    write LOCPOT, Hartree potential only
   LELF         =      F    write electronic localiz. function (ELF)
   LORBIT       =     11    0 simple, 1 ext, 2 COOP (PROOUT), +10 PAW based schemes


 Dipole corrections
   LMONO  =      F    monopole corrections only (constant potential shift)
   LDIPOL =      F    correct potential (dipole corrections)
   IDIPOL =      0    1-x, 2-y, 3-z, 4-all directions 
   EPSILON=  1.0000000 bulk dielectric constant

 LDA+U is selected, type is set to LDAUTYPE =  2
   angular momentum for each species LDAUL =     0    2    0
   U (eV)           for each species LDAUU =   0.0  3.9  0.0
   J (eV)           for each species LDAUJ =   0.0  0.0  0.0
 Exchange correlation treatment:
   GGA     =    --    GGA type
   LEXCH   =     8    internal setting for exchange type
   VOSKOWN=      0    Vosko Wilk Nusair interpolation
   LHFCALC =     F    Hartree Fock is set to
   LHFONE  =     F    Hartree Fock one center treatment
   AEXX    =    0.0000 exact exchange contribution

 Linear response parameters
   LEPSILON=     F    determine dielectric tensor
   LRPA    =     F    only Hartree local field effects (RPA)
   LNABLA  =     F    use nabla operator in PAW spheres
   LVEL    =     F    velocity operator in full k-point grid
   LINTERFAST=   F  fast interpolation
   KINTER  =     0    interpolate to denser k-point grid
   CSHIFT  =0.1000    complex shift for real part using Kramers Kronig
   OMEGAMAX=  -1.0    maximum frequency
   DEG_THRESHOLD= 0.2000000E-02 threshold for treating states as degnerate
   RTIME   =   -0.100 relaxation time in fs
  (WPLASMAI=    0.000 imaginary part of plasma frequency in eV, 0.658/RTIME)
   DFIELD  = 0.0000000 0.0000000 0.0000000 field for delta impulse in time
 
 Orbital magnetization related:
   ORBITALMAG=     F  switch on orbital magnetization
   LCHIMAG   =     F  perturbation theory with respect to B field
   DQ        =  0.001000  dq finite difference perturbation B field
   LLRAUG    =     F  two centre corrections for induced B field



--------------------------------------------------------------------------------------------------------


 Static calculation
 charge density and potential will be updated during run
 spin polarized calculation
 Variant of blocked Davidson
 Davidson routine will perform the subspace rotation
 perform sub-space diagonalisation
    after iterative eigenvector-optimisation
 modified Broyden-mixing scheme, WC =      100.0
 initial mixing is a Kerker type mixing with AMIX =  0.4000 and BMIX =      1.0000
 Hartree-type preconditioning will be used
 using additional bands           76
 real space projection scheme for non local part
 use partial core corrections
 calculate Harris-corrections to forces 
   (improved forces if not selfconsistent)
 use gradient corrections 
 use of overlap-Matrix (Vanderbilt PP)
 Fermi weights with tetrahedron method with Bloechl corrections


--------------------------------------------------------------------------------------------------------


  energy-cutoff  :      500.00
  volume of cell :      711.83
      direct lattice vectors                 reciprocal lattice vectors
     9.996316000  0.000009000  0.001784000     0.100036800  0.057756387  0.000008571
    -4.998165000  8.657059000 -0.002284000    -0.000000101  0.115512607 -0.000018565
    -0.001468000  0.001322000  8.225567000    -0.000021696  0.000019548  0.121572159

  length of vectors
     9.996316159  9.996315777  8.225567237     0.115512604  0.115512609  0.121572163


 
 k-points in units of 2pi/SCALE and weight: pymatgen 4.7.6+ generated KPOINTS with g
   0.00000000  0.00000000  0.00000000       0.028
   0.03334560  0.01925213  0.00000286       0.056
  -0.00000003  0.03850420 -0.00000619       0.056
   0.03334557  0.05775633 -0.00000333       0.056
  -0.03334563  0.01925207 -0.00000905       0.056
  -0.00000542  0.00000489  0.03039304       0.056
   0.03334018  0.01925702  0.03039590       0.056
  -0.03335102 -0.01924724  0.03039018       0.056
  -0.00000546  0.03850909  0.03038685       0.056
   0.03334014  0.05776122  0.03038971       0.056
  -0.03335106  0.01925696  0.03038399       0.056
  -0.00000539 -0.03849932  0.03039923       0.056
   0.03334021 -0.01924719  0.03040209       0.056
  -0.03335099 -0.05775144  0.03039637       0.056
  -0.00001085  0.00000977  0.06078608       0.028
   0.03333475  0.01926190  0.06078894       0.056
  -0.00001088  0.03851398  0.06077989       0.056
   0.03333472  0.05776611  0.06078275       0.056
  -0.03335648  0.01926185  0.06077703       0.056
 
 k-points in reciprocal lattice and weights: pymatgen 4.7.6+ generated KPOINTS with g
   0.00000000  0.00000000  0.00000000       0.028
   0.33333333 -0.00000000 -0.00000000       0.056
  -0.00000000  0.33333333  0.00000000       0.056
   0.33333333  0.33333333  0.00000000       0.056
  -0.33333333  0.33333333  0.00000000       0.056
  -0.00000000 -0.00000000  0.25000000       0.056
   0.33333333 -0.00000000  0.25000000       0.056
  -0.33333333  0.00000000  0.25000000       0.056
  -0.00000000  0.33333333  0.25000000       0.056
   0.33333333  0.33333333  0.25000000       0.056
  -0.33333333  0.33333333  0.25000000       0.056
  -0.00000000 -0.33333333  0.25000000       0.056
   0.33333333 -0.33333333  0.25000000       0.056
  -0.33333333 -0.33333333  0.25000000       0.056
  -0.00000000 -0.00000000  0.50000000       0.028
   0.33333333 -0.00000000  0.50000000       0.056
  -0.00000000  0.33333333  0.50000000       0.056
   0.33333333  0.33333333  0.50000000       0.056
  -0.33333333  0.33333333  0.50000000       0.056
 
 position of ions in fractional coordinates (direct lattice) 
   0.00493100  0.00491500  0.00038300
   0.98901300  0.98904400  0.50688600
   0.00001700  0.50007100  0.00000900
   0.99833100  0.50148400  0.49996400
   0.49998300  0.99992900  0.99999100
   0.50166900  0.99851600  0.50003600
   0.49506900  0.49508500  0.99961700
   0.51098700  0.51095600  0.49311400
   0.17039200  0.34465400  0.25873000
   0.15529300  0.32964300  0.74129800
   0.16627500  0.83715300  0.25077100
   0.16465300  0.82582000  0.75152100
   0.67420400  0.33534000  0.24839900
   0.66283300  0.33375500  0.74936100
   0.66739000  0.83384900  0.24328200
   0.66620600  0.83259500  0.75671500
   0.34470700  0.17035700  0.25870200
   0.32960800  0.15534600  0.74127000
   0.33534700  0.67418000  0.24847900
   0.33372500  0.66284700  0.74922900
   0.83716700  0.16624500  0.25063900
   0.82579600  0.16466000  0.75160100
   0.83379400  0.66740500  0.24328500
   0.83261000  0.66615100  0.75671800
   0.32543200  0.32538400  0.14598200
   0.29208500  0.29218200  0.57027400
   0.32091400  0.82680000  0.12563400
   0.32171300  0.81818200  0.62875500
   0.82686500  0.32098300  0.12553900
   0.81801200  0.32161900  0.62876300
   0.81927800  0.81927000  0.11793900
   0.82210600  0.82210500  0.63521200
   0.17847700  0.01194500  0.14184500
   0.17324700  0.98802000  0.62384200
   0.17820200  0.50038500  0.13151900
   0.17756600  0.50102100  0.62160100
   0.68479500  0.00343700  0.12152600
   0.67301900  0.99661800  0.63275900
   0.68128000  0.49755200  0.12052500
   0.67611300  0.50311700  0.63142800
   0.01199500  0.17858400  0.14161800
   0.98801400  0.17335100  0.62393000
   0.00349400  0.68483500  0.12172800
   0.99648200  0.67292200  0.63267600
   0.50030000  0.17821900  0.13144700
   0.50099900  0.17785300  0.62156200
   0.49758900  0.68125500  0.12066000
   0.50306500  0.67614600  0.63139500
   0.32243400  0.99897900  0.37839900
   0.32179800  0.99961500  0.86848100
   0.32675300  0.51198000  0.37615800
   0.32152300  0.48805500  0.85815500
   0.82388700  0.99688300  0.36857200
   0.81872000  0.00244800  0.87947500
   0.82698100  0.50338200  0.36724100
   0.81520500  0.49656300  0.87847400
   0.20791500  0.20781800  0.42972600
   0.17456800  0.17461600  0.85401800
   0.17828700  0.68181800  0.37124500
   0.17908600  0.67320000  0.87436600
   0.68198800  0.17838100  0.37123700
   0.67313500  0.17901700  0.87446100
   0.67789400  0.67789500  0.36478800
   0.68072200  0.68073000  0.88206100
   0.99900100  0.32214700  0.37843800
   0.99970000  0.32178100  0.86855300
   0.99693500  0.82385400  0.36860500
   0.00241100  0.81874500  0.87934000
   0.51198600  0.32664900  0.37607000
   0.48800500  0.32141600  0.85838200
   0.50351800  0.82707800  0.36732400
   0.49650600  0.81516500  0.87827200
 
 position of ions in cartesian coordinates  (Angst):
   0.02472529  0.04255000  0.00314796
   4.94233726  8.56289127  4.16893018
  -2.49926745  4.32914416 -0.00106810
   7.47239842  4.34204651  4.11312301
  -0.00129005  8.65777084  8.22410110
   0.02336008  8.64487749  4.11169399
   2.47288221  4.28730600  8.22216904
   2.55342124  4.42403273  4.05588682
  -0.01972510  2.98403359  2.12771774
  -0.09634043  2.85472029  6.09712050
  -2.52245951  7.24761593  2.06111824
  -2.48276443  7.15016746  6.18009391
   5.06310693  2.90339262  2.04365948
   4.95662550  2.89033335  6.16433931
   2.50336931  7.21900762  2.00041850
   2.49704765  7.20883041  6.22369680
   2.59394793  1.47513571  2.12819650
   2.51733260  1.34582241  6.09759926
  -0.01779307  5.83674754  2.04293909
   0.02190201  5.73929907  6.16191476
   7.53729800  1.43953165  2.06276169
   7.43081657  1.42647238  6.18344152
   4.99871085  5.77809359  2.00112020
   4.99238919  5.76791638  6.22439850
   1.62658389  2.81706440  1.20062212
   1.45856295  2.53019334  4.69068073
  -0.92470950  7.15782536  1.03209498
  -0.87438684  7.08388396  5.17057159
   6.66109354  2.77894217  1.03337146
   6.56867859  2.78511325  5.17265694
   4.09474201  7.09263202  0.96970553
   4.10808243  7.11785864  5.22456781
   1.72420118  0.10359770  1.16704667
  -3.20737103  8.55417371  5.12950660
  -0.71983636  4.33203794  1.08099338
  -0.73009229  4.33819171  5.11219312
   6.82807012  0.02992113  1.00083408
   1.74552050  8.62862339  5.20372594
   4.32326624  4.30750249  0.99146546
   4.24305048  4.35635439  5.19391039
  -0.77289438  1.54619955  1.16450186
   9.00914733  1.50154356  5.13354470
  -3.38816990  5.92881796  0.99972389
   6.59684500  5.82637082  5.20435960
   4.11019596  1.54303067  1.08171159
   4.11829323  1.54051013  5.11318744
   1.56885486  5.89782872  0.99182863
   1.64838055  5.85427505  5.19293503
  -1.77046521  8.64872329  3.11083988
  -1.78072114  8.65487706  7.14203962
   0.70681353  4.43274129  3.09352640
   0.77340632  4.22625830  7.05827033
   3.25270802  8.63056961  3.03090661
   8.17065726  0.02236251  7.23563554
   5.75023800  4.35830061  3.02109106
   5.66585338  4.29994387  7.22626692
   1.03904455  1.79966266  3.53463627
   0.87102361  1.51279160  7.02469488
  -1.62617066  5.90303104  3.05246141
  -1.57584800  5.82908964  7.19093802
   5.92524491  1.54475175  3.05444406
   5.83282996  1.55092283  7.19372954
   3.38767607  5.86906536  3.00024919
   3.40101649  5.89429198  7.25511147
   8.37563027  2.78935487  3.11391356
   8.38372754  2.78683433  7.14538941
   5.84737795  7.13264895  3.03188197
  -4.06941236  7.08908628  7.23120437
   3.48477617  2.82832144  3.09355630
   3.27050188  2.78365645  7.06081514
   0.89891350  7.16055318  3.02045740
   0.88761240  7.05809704  7.22330911
 


--------------------------------------------------------------------------------------------------------


 k-point  1 :   0.0000 0.0000 0.0000  plane waves:   18077
 k-point  2 :   0.3333-0.0000-0.0000  plane waves:   18058
 k-point  3 :  -0.0000 0.3333 0.0000  plane waves:   18058
 k-point  4 :   0.3333 0.3333 0.0000  plane waves:   18036
 k-point  5 :  -0.3333 0.3333 0.0000  plane waves:   18058
 k-point  6 :  -0.0000-0.0000 0.2500  plane waves:   18078
 k-point  7 :   0.3333-0.0000 0.2500  plane waves:   18072
 k-point  8 :  -0.3333 0.0000 0.2500  plane waves:   18072
 k-point  9 :  -0.0000 0.3333 0.2500  plane waves:   18072
 k-point 10 :   0.3333 0.3333 0.2500  plane waves:   18054
 k-point 11 :  -0.3333 0.3333 0.2500  plane waves:   18072
 k-point 12 :  -0.0000-0.3333 0.2500  plane waves:   18072
 k-point 13 :   0.3333-0.3333 0.2500  plane waves:   18072
 k-point 14 :  -0.3333-0.3333 0.2500  plane waves:   18054
 k-point 15 :  -0.0000-0.0000 0.5000  plane waves:   18054
 k-point 16 :   0.3333-0.0000 0.5000  plane waves:   18072
 k-point 17 :  -0.0000 0.3333 0.5000  plane waves:   18072
 k-point 18 :   0.3333 0.3333 0.5000  plane waves:   18150
 k-point 19 :  -0.3333 0.3333 0.5000  plane waves:   18072

 maximum and minimum number of plane-waves per node :     18150    18036

 maximum number of plane-waves:     18150
 maximum index in each direction: 
   IXMAX=   18   IYMAX=   18   IZMAX=   14
   IXMIN=  -18   IYMIN=  -18   IZMIN=  -15


 serial   3D FFT for wavefunctions
 parallel 3D FFT for charge:
    minimum data exchange during FFTs selected (reduces bandwidth)


 total amount of memory used by VASP MPI-rank0   254312. kBytes
=======================================================================

   base      :      30000. kBytes
   nonlr-proj:      37507. kBytes
   fftplans  :       5472. kBytes
   grid      :      41200. kBytes
   one-center:       2239. kBytes
   wavefun   :     137894. kBytes
 
     INWAV:  cpu time    0.0000: real time    0.0001
 Broyden mixing: mesh for mixing (old mesh)
   NGX = 37   NGY = 37   NGZ = 29
  (NGX  =160   NGY  =160   NGZ  =120)
  gives a total of  39701 points

 initial charge density was supplied:
 charge density of overlapping atoms calculated
 number of electron     520.0000000 magnetization      28.5020000
 keeping initial charge density in first step


--------------------------------------------------------------------------------------------------------


 Maximum index for non-local projection operator         7040
 Maximum index for augmentation-charges          670 (set IRDMAX)


--------------------------------------------------------------------------------------------------------


 First call to EWALD:  gamma=   0.199
 Maximum number of real-space cells 3x 3x 3
 Maximum number of reciprocal cells 3x 3x 3

    FEWALD:  cpu time    0.0025: real time    0.0025


--------------------------------------- Iteration      1(   1)  ---------------------------------------


    POTLOK:  cpu time    0.2115: real time    0.2120
    SETDIJ:  cpu time    1.0458: real time    1.0486
atom =   1  type =  1  l = 0
 
 onsite density matrix
 
spin component  1
 
  1.0209
 
spin component  2
 
  1.0189
 
 occupancies and eigenvectors
 
  o =  1.0189  v =  0.0000  1.0000      0.0000  0.0000
  o =  1.0209  v =  1.0000  0.0000      0.0000  0.0000
atom =   2  type =  1  l = 0
 
 onsite density matrix
 
spin component  1
 
  1.0209
 
spin component  2
 
  1.0189
 
 occupancies and eigenvectors
 
  o =  1.0189  v =  0.0000  1.0000      0.0000  0.0000
  o =  1.0209  v =  1.0000  0.0000      0.0000  0.0000
atom =   3  type =  1  l = 0
 
 onsite density matrix
 
spin component  1
 
  1.0209
 
spin component  2
 
  1.0189
 
 occupancies and eigenvectors
 
  o =  1.0189  v =  0.0000  1.0000      0.0000  0.0000
  o =  1.0209  v =  1.0000  0.0000      0.0000  0.0000
atom =   4  type =  1  l = 0
 
 onsite density matrix
 
spin component  1
 
  1.0209
 
spin component  2
 
  1.0189
 
 occupancies and eigenvectors
 
  o =  1.0189  v =  0.0000  1.0000      0.0000  0.0000
  o =  1.0209  v =  1.0000  0.0000      0.0000  0.0000
atom =   5  type =  1  l = 0
 
 onsite density matrix
 
spin component  1
 
  1.0209
 
spin component  2
 
  1.0189
 
 occupancies and eigenvectors
 
  o =  1.0189  v =  0.0000  1.0000      0.0000  0.0000
  o =  1.0209  v =  1.0000  0.0000      0.0000  0.0000
atom =   6  type =  1  l = 0
 
 onsite density matrix
 
spin component  1
 
  1.0209
 
spin component  2
 
  1.0189
 
 occupancies and eigenvectors
 
  o =  1.0189  v =  0.0000  1.0000      0.0000  0.0000
  o =  1.0209  v =  1.0000  0.0000      0.0000  0.0000
atom =   7  type =  1  l = 0
 
 onsite density matrix
 
spin component  1
 
  1.0209
 
spin component  2
 
  1.0189
 
 occupancies and eigenvectors
 
  o =  1.0189  v =  0.0000  1.0000      0.0000  0.0000
  o =  1.0209  v =  1.0000  0.0000      0.0000  0.0000
atom =   8  type =  1  l = 0
 
 onsite density matrix
 
spin component  1
 
  1.0209
 
spin component  2
 
  1.0189
 
 occupancies and eigenvectors
 
  o =  1.0189  v =  0.0000  1.0000      0.0000  0.0000
  o =  1.0209  v =  1.0000  0.0000      0.0000  0.0000
atom =   9  type =  2  l = 2
 
 onsite density matrix
 
spin component  1
 
  0.6508  0.0000  0.0000  0.0000  0.0000
  0.0000  0.6508  0.0000  0.0000  0.0000
  0.0000  0.0000  0.6508  0.0000  0.0000
  0.0000  0.0000  0.0000  0.6508  0.0000
  0.0000  0.0000  0.0000  0.0000  0.6508
 
spin component  2
 
  0.4020  0.0000  0.0000  0.0000  0.0000
  0.0000  0.4020  0.0000  0.0000  0.0000
  0.0000  0.0000  0.4020  0.0000  0.0000
  0.0000  0.0000  0.0000  0.4020  0.0000
  0.0000  0.0000  0.0000  0.0000  0.4020
 
 occupancies and eigenvectors
 
  o =  0.4020  v =  0.0000  0.0000  0.0000  0.0000  0.0000  1.0000  0.0000  0.0000  0.0000  0.0000      0.0000  0.0000  0.0000  0.0000  0.0000  0.0000  0.0000  0.0000  0.0000  0.0000
  o =  0.4020  v =  0.0000  0.0000  0.0000  0.0000  0.0000  0.0000  1.0000  0.0000  0.0000  0.0000      0.0000  0.0000  0.0000  0.0000  0.0000  0.0000  0.0000  0.0000  0.0000  0.0000
  o =  0.4020  v =  0.0000  0.0000  0.0000  0.0000  0.0000  0.0000  0.0000  1.0000  0.0000  0.0000      0.0000  0.0000  0.0000  0.0000  0.0000  0.0000  0.0000  0.0000  0.0000  0.0000
  o =  0.4020  v =  0.0000  0.0000  0.0000  0.0000  0.0000  0.0000  0.0000  0.0000  0.0000 -1.0000      0.0000  0.0000  0.0000  0.0000  0.0000  0.0000  0.0000  0.0000  0.0000  0.0000
  o =  0.4020  v =  0.0000  0.0000  0.0000  0.0000  0.0000  0.0000  0.0000  0.0000 -1.0000  0.0000      0.0000  0.0000  0.0000  0.0000  0.0000  0.0000  0.0000  0.0000  0.0000  0.0000
  o =  0.6508  v =  1.0000  0.0000  0.0000  0.0000  0.0000  0.0000  0.0000  0.0000  0.0000  0.0000      0.0000  0.0000  0.0000  0.0000  0.0000  0.0000  0.0000  0.0000  0.0000  0.0000
  o =  0.6508  v =  0.0000  1.0000  0.0000  0.0000  0.0000  0.0000  0.0000  0.0000  0.0000  0.0000      0.0000  0.0000  0.0000  0.0000  0.0000  0.0000  0.0000  0.0000  0.0000  0.0000
  o =  0.6508  v =  0.0000  0.0000  1.0000  0.0000  0.0000  0.0000  0.0000  0.0000  0.0000  0.0000      0.0000  0.0000  0.0000  0.0000  0.0000  0.0000  0.0000  0.0000  0.0000  0.0000
  o =  0.6508  v =  0.0000  0.0000  0.0000  0.0000 -1.0000  0.0000  0.0000  0.0000  0.0000  0.0000      0.0000  0.0000  0.0000  0.0000  0.0000  0.0000  0.0000  0.0000  0.0000  0.0000
  o =  0.6508  v =  0.0000  0.0000  0.0000 -1.0000  0.0000  0.0000  0.0000  0.0000  0.0000  0.0000      0.0000  0.0000  0.0000  0.0000  0.0000  0.0000  0.0000  0.0000  0.0000  0.0000
atom =  10  type =  2  l = 2
 
 onsite density matrix
 
spin component  1
 
  0.6508  0.0000  0.0000  0.0000  0.0000
  0.0000  0.6508  0.0000  0.0000  0.0000
  0.0000  0.0000  0.6508  0.0000  0.0000
  0.0000  0.0000  0.0000  0.6508  0.0000
  0.0000  0.0000  0.0000  0.0000  0.6508
 
spin component  2
 
  0.4021  0.0000  0.0000  0.0000  0.0000
  0.0000  0.4021  0.0000  0.0000  0.0000
  0.0000  0.0000  0.4021  0.0000  0.0000
  0.0000  0.0000  0.0000  0.4021  0.0000
  0.0000  0.0000  0.0000  0.0000  0.4021
 
 occupancies and eigenvectors
 
  o =  0.4021  v =  0.0000  0.0000  0.0000  0.0000  0.0000  1.0000  0.0000  0.0000  0.0000  0.0000      0.0000  0.0000  0.0000  0.0000  0.0000  0.0000  0.0000  0.0000  0.0000  0.0000
  o =  0.4021  v =  0.0000  0.0000  0.0000  0.0000  0.0000  0.0000  1.0000  0.0000  0.0000  0.0000      0.0000  0.0000  0.0000  0.0000  0.0000  0.0000  0.0000  0.0000  0.0000  0.0000
  o =  0.4021  v =  0.0000  0.0000  0.0000  0.0000  0.0000  0.0000  0.0000  1.0000  0.0000  0.0000      0.0000  0.0000  0.0000  0.0000  0.0000  0.0000  0.0000  0.0000  0.0000  0.0000
  o =  0.4021  v =  0.0000  0.0000  0.0000  0.0000  0.0000  0.0000  0.0000  0.0000  0.0000 -1.0000      0.0000  0.0000  0.0000  0.0000  0.0000  0.0000  0.0000  0.0000  0.0000  0.0000
  o =  0.4021  v =  0.0000  0.0000  0.0000  0.0000  0.0000  0.0000  0.0000  0.0000 -1.0000  0.0000      0.0000  0.0000  0.0000  0.0000  0.0000  0.0000  0.0000  0.0000  0.0000  0.0000
  o =  0.6508  v =  1.0000  0.0000  0.0000  0.0000  0.0000  0.0000  0.0000  0.0000  0.0000  0.0000      0.0000  0.0000  0.0000  0.0000  0.0000  0.0000  0.0000  0.0000  0.0000  0.0000
  o =  0.6508  v =  0.0000  1.0000  0.0000  0.0000  0.0000  0.0000  0.0000  0.0000  0.0000  0.0000      0.0000  0.0000  0.0000  0.0000  0.0000  0.0000  0.0000  0.0000  0.0000  0.0000
  o =  0.6508  v =  0.0000  0.0000  1.0000  0.0000  0.0000  0.0000  0.0000  0.0000  0.0000  0.0000      0.0000  0.0000  0.0000  0.0000  0.0000  0.0000  0.0000  0.0000  0.0000  0.0000
  o =  0.6508  v =  0.0000  0.0000  0.0000  0.0000 -1.0000  0.0000  0.0000  0.0000  0.0000  0.0000      0.0000  0.0000  0.0000  0.0000  0.0000  0.0000  0.0000  0.0000  0.0000  0.0000
  o =  0.6508  v =  0.0000  0.0000  0.0000 -1.0000  0.0000  0.0000  0.0000  0.0000  0.0000  0.0000      0.0000  0.0000  0.0000  0.0000  0.0000  0.0000  0.0000  0.0000  0.0000  0.0000
atom =  11  type =  2  l = 2
 
 onsite density matrix
 
spin component  1
 
  0.6505  0.0000  0.0000  0.0000  0.0000
  0.0000  0.6505  0.0000  0.0000  0.0000
  0.0000  0.0000  0.6505  0.0000  0.0000
  0.0000  0.0000  0.0000  0.6505  0.0000
  0.0000  0.0000  0.0000  0.0000  0.6505
 
spin component  2
 
  0.4023  0.0000  0.0000  0.0000  0.0000
  0.0000  0.4023  0.0000  0.0000  0.0000
  0.0000  0.0000  0.4023  0.0000  0.0000
  0.0000  0.0000  0.0000  0.4023  0.0000
  0.0000  0.0000  0.0000  0.0000  0.4023
 
 occupancies and eigenvectors
 
  o =  0.4023  v =  0.0000  0.0000  0.0000  0.0000  0.0000  1.0000  0.0000  0.0000  0.0000  0.0000      0.0000  0.0000  0.0000  0.0000  0.0000  0.0000  0.0000  0.0000  0.0000  0.0000
  o =  0.4023  v =  0.0000  0.0000  0.0000  0.0000  0.0000  0.0000  1.0000  0.0000  0.0000  0.0000      0.0000  0.0000  0.0000  0.0000  0.0000  0.0000  0.0000  0.0000  0.0000  0.0000
  o =  0.4023  v =  0.0000  0.0000  0.0000  0.0000  0.0000  0.0000  0.0000  1.0000  0.0000  0.0000      0.0000  0.0000  0.0000  0.0000  0.0000  0.0000  0.0000  0.0000  0.0000  0.0000
  o =  0.4023  v =  0.0000  0.0000  0.0000  0.0000  0.0000  0.0000  0.0000  0.0000  0.0000 -1.0000      0.0000  0.0000  0.0000  0.0000  0.0000  0.0000  0.0000  0.0000  0.0000  0.0000
  o =  0.4023  v =  0.0000  0.0000  0.0000  0.0000  0.0000  0.0000  0.0000  0.0000 -1.0000  0.0000      0.0000  0.0000  0.0000  0.0000  0.0000  0.0000  0.0000  0.0000  0.0000  0.0000
  o =  0.6505  v =  1.0000  0.0000  0.0000  0.0000  0.0000  0.0000  0.0000  0.0000  0.0000  0.0000      0.0000  0.0000  0.0000  0.0000  0.0000  0.0000  0.0000  0.0000  0.0000  0.0000
  o =  0.6505  v =  0.0000  1.0000  0.0000  0.0000  0.0000  0.0000  0.0000  0.0000  0.0000  0.0000      0.0000  0.0000  0.0000  0.0000  0.0000  0.0000  0.0000  0.0000  0.0000  0.0000
  o =  0.6505  v =  0.0000  0.0000  1.0000  0.0000  0.0000  0.0000  0.0000  0.0000  0.0000  0.0000      0.0000  0.0000  0.0000  0.0000  0.0000  0.0000  0.0000  0.0000  0.0000  0.0000
  o =  0.6505  v =  0.0000  0.0000  0.0000  0.0000 -1.0000  0.0000  0.0000  0.0000  0.0000  0.0000      0.0000  0.0000  0.0000  0.0000  0.0000  0.0000  0.0000  0.0000  0.0000  0.0000
  o =  0.6505  v =  0.0000  0.0000  0.0000 -1.0000  0.0000  0.0000  0.0000  0.0000  0.0000  0.0000      0.0000  0.0000  0.0000  0.0000  0.0000  0.0000  0.0000  0.0000  0.0000  0.0000
atom =  12  type =  2  l = 2
 
 onsite density matrix
 
spin component  1
 
  0.6498  0.0000  0.0000  0.0000  0.0000
  0.0000  0.6498  0.0000  0.0000  0.0000
  0.0000  0.0000  0.6498  0.0000  0.0000
  0.0000  0.0000  0.0000  0.6498  0.0000
  0.0000  0.0000  0.0000  0.0000  0.6498
 
spin component  2
 
  0.4031  0.0000  0.0000  0.0000  0.0000
  0.0000  0.4031  0.0000  0.0000  0.0000
  0.0000  0.0000  0.4031  0.0000  0.0000
  0.0000  0.0000  0.0000  0.4031  0.0000
  0.0000  0.0000  0.0000  0.0000  0.4031
 
 occupancies and eigenvectors
 
  o =  0.4031  v =  0.0000  0.0000  0.0000  0.0000  0.0000  1.0000  0.0000  0.0000  0.0000  0.0000      0.0000  0.0000  0.0000  0.0000  0.0000  0.0000  0.0000  0.0000  0.0000  0.0000
  o =  0.4031  v =  0.0000  0.0000  0.0000  0.0000  0.0000  0.0000  1.0000  0.0000  0.0000  0.0000      0.0000  0.0000  0.0000  0.0000  0.0000  0.0000  0.0000  0.0000  0.0000  0.0000
  o =  0.4031  v =  0.0000  0.0000  0.0000  0.0000  0.0000  0.0000  0.0000  1.0000  0.0000  0.0000      0.0000  0.0000  0.0000  0.0000  0.0000  0.0000  0.0000  0.0000  0.0000  0.0000
  o =  0.4031  v =  0.0000  0.0000  0.0000  0.0000  0.0000  0.0000  0.0000  0.0000  0.0000 -1.0000      0.0000  0.0000  0.0000  0.0000  0.0000  0.0000  0.0000  0.0000  0.0000  0.0000
  o =  0.4031  v =  0.0000  0.0000  0.0000  0.0000  0.0000  0.0000  0.0000  0.0000 -1.0000  0.0000      0.0000  0.0000  0.0000  0.0000  0.0000  0.0000  0.0000  0.0000  0.0000  0.0000
  o =  0.6498  v =  1.0000  0.0000  0.0000  0.0000  0.0000  0.0000  0.0000  0.0000  0.0000  0.0000      0.0000  0.0000  0.0000  0.0000  0.0000  0.0000  0.0000  0.0000  0.0000  0.0000
  o =  0.6498  v =  0.0000  1.0000  0.0000  0.0000  0.0000  0.0000  0.0000  0.0000  0.0000  0.0000      0.0000  0.0000  0.0000  0.0000  0.0000  0.0000  0.0000  0.0000  0.0000  0.0000
  o =  0.6498  v =  0.0000  0.0000  1.0000  0.0000  0.0000  0.0000  0.0000  0.0000  0.0000  0.0000      0.0000  0.0000  0.0000  0.0000  0.0000  0.0000  0.0000  0.0000  0.0000  0.0000
  o =  0.6498  v =  0.0000  0.0000  0.0000  0.0000 -1.0000  0.0000  0.0000  0.0000  0.0000  0.0000      0.0000  0.0000  0.0000  0.0000  0.0000  0.0000  0.0000  0.0000  0.0000  0.0000
  o =  0.6498  v =  0.0000  0.0000  0.0000 -1.0000  0.0000  0.0000  0.0000  0.0000  0.0000  0.0000      0.0000  0.0000  0.0000  0.0000  0.0000  0.0000  0.0000  0.0000  0.0000  0.0000
atom =  13  type =  2  l = 2
 
 onsite density matrix
 
spin component  1
 
  0.6498  0.0000  0.0000  0.0000  0.0000
  0.0000  0.6498  0.0000  0.0000  0.0000
  0.0000  0.0000  0.6498  0.0000  0.0000
  0.0000  0.0000  0.0000  0.6498  0.0000
  0.0000  0.0000  0.0000  0.0000  0.6498
 
spin component  2
 
  0.4031  0.0000  0.0000  0.0000  0.0000
  0.0000  0.4031  0.0000  0.0000  0.0000
  0.0000  0.0000  0.4031  0.0000  0.0000
  0.0000  0.0000  0.0000  0.4031  0.0000
  0.0000  0.0000  0.0000  0.0000  0.4031
 
 occupancies and eigenvectors
 
  o =  0.4031  v =  0.0000  0.0000  0.0000  0.0000  0.0000  1.0000  0.0000  0.0000  0.0000  0.0000      0.0000  0.0000  0.0000  0.0000  0.0000  0.0000  0.0000  0.0000  0.0000  0.0000
  o =  0.4031  v =  0.0000  0.0000  0.0000  0.0000  0.0000  0.0000  1.0000  0.0000  0.0000  0.0000      0.0000  0.0000  0.0000  0.0000  0.0000  0.0000  0.0000  0.0000  0.0000  0.0000
  o =  0.4031  v =  0.0000  0.0000  0.0000  0.0000  0.0000  0.0000  0.0000  1.0000  0.0000  0.0000      0.0000  0.0000  0.0000  0.0000  0.0000  0.0000  0.0000  0.0000  0.0000  0.0000
  o =  0.4031  v =  0.0000  0.0000  0.0000  0.0000  0.0000  0.0000  0.0000  0.0000  0.0000 -1.0000      0.0000  0.0000  0.0000  0.0000  0.0000  0.0000  0.0000  0.0000  0.0000  0.0000
  o =  0.4031  v =  0.0000  0.0000  0.0000  0.0000  0.0000  0.0000  0.0000  0.0000 -1.0000  0.0000      0.0000  0.0000  0.0000  0.0000  0.0000  0.0000  0.0000  0.0000  0.0000  0.0000
  o =  0.6498  v =  1.0000  0.0000  0.0000  0.0000  0.0000  0.0000  0.0000  0.0000  0.0000  0.0000      0.0000  0.0000  0.0000  0.0000  0.0000  0.0000  0.0000  0.0000  0.0000  0.0000
  o =  0.6498  v =  0.0000  1.0000  0.0000  0.0000  0.0000  0.0000  0.0000  0.0000  0.0000  0.0000      0.0000  0.0000  0.0000  0.0000  0.0000  0.0000  0.0000  0.0000  0.0000  0.0000
  o =  0.6498  v =  0.0000  0.0000  1.0000  0.0000  0.0000  0.0000  0.0000  0.0000  0.0000  0.0000      0.0000  0.0000  0.0000  0.0000  0.0000  0.0000  0.0000  0.0000  0.0000  0.0000
  o =  0.6498  v =  0.0000  0.0000  0.0000  0.0000 -1.0000  0.0000  0.0000  0.0000  0.0000  0.0000      0.0000  0.0000  0.0000  0.0000  0.0000  0.0000  0.0000  0.0000  0.0000  0.0000
  o =  0.6498  v =  0.0000  0.0000  0.0000 -1.0000  0.0000  0.0000  0.0000  0.0000  0.0000  0.0000      0.0000  0.0000  0.0000  0.0000  0.0000  0.0000  0.0000  0.0000  0.0000  0.0000
atom =  14  type =  2  l = 2
 
 onsite density matrix
 
spin component  1
 
  0.6506  0.0000  0.0000  0.0000  0.0000
  0.0000  0.6506  0.0000  0.0000  0.0000
  0.0000  0.0000  0.6506  0.0000  0.0000
  0.0000  0.0000  0.0000  0.6506  0.0000
  0.0000  0.0000  0.0000  0.0000  0.6506
 
spin component  2
 
  0.4023  0.0000  0.0000  0.0000  0.0000
  0.0000  0.4023  0.0000  0.0000  0.0000
  0.0000  0.0000  0.4023  0.0000  0.0000
  0.0000  0.0000  0.0000  0.4023  0.0000
  0.0000  0.0000  0.0000  0.0000  0.4023
 
 occupancies and eigenvectors
 
  o =  0.4023  v =  0.0000  0.0000  0.0000  0.0000  0.0000  0.0000  0.0000  0.0000  0.7071  0.7071      0.0000  0.0000  0.0000  0.0000  0.0000  0.0000  0.0000  0.0000  0.0000  0.0000
  o =  0.4023  v =  0.0000  0.0000  0.0000  0.0000  0.0000  1.0000  0.0000  0.0000  0.0000  0.0000      0.0000  0.0000  0.0000  0.0000  0.0000  0.0000  0.0000  0.0000  0.0000  0.0000
  o =  0.4023  v =  0.0000  0.0000  0.0000  0.0000  0.0000  0.0000  1.0000  0.0000  0.0000  0.0000      0.0000  0.0000  0.0000  0.0000  0.0000  0.0000  0.0000  0.0000  0.0000  0.0000
  o =  0.4023  v =  0.0000  0.0000  0.0000  0.0000  0.0000  0.0000  0.0000  1.0000  0.0000  0.0000      0.0000  0.0000  0.0000  0.0000  0.0000  0.0000  0.0000  0.0000  0.0000  0.0000
  o =  0.4023  v =  0.0000  0.0000  0.0000  0.0000  0.0000  0.0000  0.0000  0.0000 -0.7071  0.7071      0.0000  0.0000  0.0000  0.0000  0.0000  0.0000  0.0000  0.0000  0.0000  0.0000
  o =  0.6506  v =  0.0000  1.0000  0.0000  0.0000  0.0000  0.0000  0.0000  0.0000  0.0000  0.0000      0.0000  0.0000  0.0000  0.0000  0.0000  0.0000  0.0000  0.0000  0.0000  0.0000
  o =  0.6506  v =  0.0000  0.0000  1.0000  0.0000  0.0000  0.0000  0.0000  0.0000  0.0000  0.0000      0.0000  0.0000  0.0000  0.0000  0.0000  0.0000  0.0000  0.0000  0.0000  0.0000
  o =  0.6506  v =  0.0000  0.0000  0.0000  0.0000 -1.0000  0.0000  0.0000  0.0000  0.0000  0.0000      0.0000  0.0000  0.0000  0.0000  0.0000  0.0000  0.0000  0.0000  0.0000  0.0000
  o =  0.6506  v =  0.0000  0.0000  0.0000 -1.0000  0.0000  0.0000  0.0000  0.0000  0.0000  0.0000      0.0000  0.0000  0.0000  0.0000  0.0000  0.0000  0.0000  0.0000  0.0000  0.0000
  o =  0.6506  v =  1.0000  0.0000  0.0000  0.0000  0.0000  0.0000  0.0000  0.0000  0.0000  0.0000      0.0000  0.0000  0.0000  0.0000  0.0000  0.0000  0.0000  0.0000  0.0000  0.0000
atom =  15  type =  2  l = 2
 
 onsite density matrix
 
spin component  1
 
  0.6498  0.0000  0.0000  0.0000  0.0000
  0.0000  0.6498  0.0000  0.0000  0.0000
  0.0000  0.0000  0.6498  0.0000  0.0000
  0.0000  0.0000  0.0000  0.6498  0.0000
  0.0000  0.0000  0.0000  0.0000  0.6498
 
spin component  2
 
  0.4030  0.0000  0.0000  0.0000  0.0000
  0.0000  0.4030  0.0000  0.0000  0.0000
  0.0000  0.0000  0.4030  0.0000  0.0000
  0.0000  0.0000  0.0000  0.4030  0.0000
  0.0000  0.0000  0.0000  0.0000  0.4030
 
 occupancies and eigenvectors
 
  o =  0.4030  v =  0.0000  0.0000  0.0000  0.0000  0.0000  1.0000  0.0000  0.0000  0.0000  0.0000      0.0000  0.0000  0.0000  0.0000  0.0000  0.0000  0.0000  0.0000  0.0000  0.0000
  o =  0.4030  v =  0.0000  0.0000  0.0000  0.0000  0.0000  0.0000  1.0000  0.0000  0.0000  0.0000      0.0000  0.0000  0.0000  0.0000  0.0000  0.0000  0.0000  0.0000  0.0000  0.0000
  o =  0.4030  v =  0.0000  0.0000  0.0000  0.0000  0.0000  0.0000  0.0000  1.0000  0.0000  0.0000      0.0000  0.0000  0.0000  0.0000  0.0000  0.0000  0.0000  0.0000  0.0000  0.0000
  o =  0.4030  v =  0.0000  0.0000  0.0000  0.0000  0.0000  0.0000  0.0000  0.0000  0.0000 -1.0000      0.0000  0.0000  0.0000  0.0000  0.0000  0.0000  0.0000  0.0000  0.0000  0.0000
  o =  0.4030  v =  0.0000  0.0000  0.0000  0.0000  0.0000  0.0000  0.0000  0.0000 -1.0000  0.0000      0.0000  0.0000  0.0000  0.0000  0.0000  0.0000  0.0000  0.0000  0.0000  0.0000
  o =  0.6498  v =  1.0000  0.0000  0.0000  0.0000  0.0000  0.0000  0.0000  0.0000  0.0000  0.0000      0.0000  0.0000  0.0000  0.0000  0.0000  0.0000  0.0000  0.0000  0.0000  0.0000
  o =  0.6498  v =  0.0000  1.0000  0.0000  0.0000  0.0000  0.0000  0.0000  0.0000  0.0000  0.0000      0.0000  0.0000  0.0000  0.0000  0.0000  0.0000  0.0000  0.0000  0.0000  0.0000
  o =  0.6498  v =  0.0000  0.0000  1.0000  0.0000  0.0000  0.0000  0.0000  0.0000  0.0000  0.0000      0.0000  0.0000  0.0000  0.0000  0.0000  0.0000  0.0000  0.0000  0.0000  0.0000
  o =  0.6498  v =  0.0000  0.0000  0.0000  0.0000 -1.0000  0.0000  0.0000  0.0000  0.0000  0.0000      0.0000  0.0000  0.0000  0.0000  0.0000  0.0000  0.0000  0.0000  0.0000  0.0000
  o =  0.6498  v =  0.0000  0.0000  0.0000 -1.0000  0.0000  0.0000  0.0000  0.0000  0.0000  0.0000      0.0000  0.0000  0.0000  0.0000  0.0000  0.0000  0.0000  0.0000  0.0000  0.0000
atom =  16  type =  2  l = 2
 
 onsite density matrix
 
spin component  1
 
  0.6498  0.0000  0.0000  0.0000  0.0000
  0.0000  0.6498  0.0000  0.0000  0.0000
  0.0000  0.0000  0.6498  0.0000  0.0000
  0.0000  0.0000  0.0000  0.6498  0.0000
  0.0000  0.0000  0.0000  0.0000  0.6498
 
spin component  2
 
  0.4030  0.0000  0.0000  0.0000  0.0000
  0.0000  0.4030  0.0000  0.0000  0.0000
  0.0000  0.0000  0.4030  0.0000  0.0000
  0.0000  0.0000  0.0000  0.4030  0.0000
  0.0000  0.0000  0.0000  0.0000  0.4030
 
 occupancies and eigenvectors
 
  o =  0.4030  v =  0.0000  0.0000  0.0000  0.0000  0.0000  1.0000  0.0000  0.0000  0.0000  0.0000      0.0000  0.0000  0.0000  0.0000  0.0000  0.0000  0.0000  0.0000  0.0000  0.0000
  o =  0.4030  v =  0.0000  0.0000  0.0000  0.0000  0.0000  0.0000  1.0000  0.0000  0.0000  0.0000      0.0000  0.0000  0.0000  0.0000  0.0000  0.0000  0.0000  0.0000  0.0000  0.0000
  o =  0.4030  v =  0.0000  0.0000  0.0000  0.0000  0.0000  0.0000  0.0000  1.0000  0.0000  0.0000      0.0000  0.0000  0.0000  0.0000  0.0000  0.0000  0.0000  0.0000  0.0000  0.0000
  o =  0.4030  v =  0.0000  0.0000  0.0000  0.0000  0.0000  0.0000  0.0000  0.0000  0.0000 -1.0000      0.0000  0.0000  0.0000  0.0000  0.0000  0.0000  0.0000  0.0000  0.0000  0.0000
  o =  0.4030  v =  0.0000  0.0000  0.0000  0.0000  0.0000  0.0000  0.0000  0.0000 -1.0000  0.0000      0.0000  0.0000  0.0000  0.0000  0.0000  0.0000  0.0000  0.0000  0.0000  0.0000
  o =  0.6498  v =  1.0000  0.0000  0.0000  0.0000  0.0000  0.0000  0.0000  0.0000  0.0000  0.0000      0.0000  0.0000  0.0000  0.0000  0.0000  0.0000  0.0000  0.0000  0.0000  0.0000
  o =  0.6498  v =  0.0000  1.0000  0.0000  0.0000  0.0000  0.0000  0.0000  0.0000  0.0000  0.0000      0.0000  0.0000  0.0000  0.0000  0.0000  0.0000  0.0000  0.0000  0.0000  0.0000
  o =  0.6498  v =  0.0000  0.0000  1.0000  0.0000  0.0000  0.0000  0.0000  0.0000  0.0000  0.0000      0.0000  0.0000  0.0000  0.0000  0.0000  0.0000  0.0000  0.0000  0.0000  0.0000
  o =  0.6498  v =  0.0000  0.0000  0.0000  0.0000 -1.0000  0.0000  0.0000  0.0000  0.0000  0.0000      0.0000  0.0000  0.0000  0.0000  0.0000  0.0000  0.0000  0.0000  0.0000  0.0000
  o =  0.6498  v =  0.0000  0.0000  0.0000 -1.0000  0.0000  0.0000  0.0000  0.0000  0.0000  0.0000      0.0000  0.0000  0.0000  0.0000  0.0000  0.0000  0.0000  0.0000  0.0000  0.0000
atom =  17  type =  2  l = 2
 
 onsite density matrix
 
spin component  1
 
  0.6508  0.0000  0.0000  0.0000  0.0000
  0.0000  0.6508  0.0000  0.0000  0.0000
  0.0000  0.0000  0.6508  0.0000  0.0000
  0.0000  0.0000  0.0000  0.6508  0.0000
  0.0000  0.0000  0.0000  0.0000  0.6508
 
spin component  2
 
  0.4021  0.0000  0.0000  0.0000  0.0000
  0.0000  0.4021  0.0000  0.0000  0.0000
  0.0000  0.0000  0.4021  0.0000  0.0000
  0.0000  0.0000  0.0000  0.4021  0.0000
  0.0000  0.0000  0.0000  0.0000  0.4021
 
 occupancies and eigenvectors
 
  o =  0.4021  v =  0.0000  0.0000  0.0000  0.0000  0.0000  1.0000  0.0000  0.0000  0.0000  0.0000      0.0000  0.0000  0.0000  0.0000  0.0000  0.0000  0.0000  0.0000  0.0000  0.0000
  o =  0.4021  v =  0.0000  0.0000  0.0000  0.0000  0.0000  0.0000  1.0000  0.0000  0.0000  0.0000      0.0000  0.0000  0.0000  0.0000  0.0000  0.0000  0.0000  0.0000  0.0000  0.0000
  o =  0.4021  v =  0.0000  0.0000  0.0000  0.0000  0.0000  0.0000  0.0000  1.0000  0.0000  0.0000      0.0000  0.0000  0.0000  0.0000  0.0000  0.0000  0.0000  0.0000  0.0000  0.0000
  o =  0.4021  v =  0.0000  0.0000  0.0000  0.0000  0.0000  0.0000  0.0000  0.0000  0.0000 -1.0000      0.0000  0.0000  0.0000  0.0000  0.0000  0.0000  0.0000  0.0000  0.0000  0.0000
  o =  0.4021  v =  0.0000  0.0000  0.0000  0.0000  0.0000  0.0000  0.0000  0.0000 -1.0000  0.0000      0.0000  0.0000  0.0000  0.0000  0.0000  0.0000  0.0000  0.0000  0.0000  0.0000
  o =  0.6508  v =  1.0000  0.0000  0.0000  0.0000  0.0000  0.0000  0.0000  0.0000  0.0000  0.0000      0.0000  0.0000  0.0000  0.0000  0.0000  0.0000  0.0000  0.0000  0.0000  0.0000
  o =  0.6508  v =  0.0000  1.0000  0.0000  0.0000  0.0000  0.0000  0.0000  0.0000  0.0000  0.0000      0.0000  0.0000  0.0000  0.0000  0.0000  0.0000  0.0000  0.0000  0.0000  0.0000
  o =  0.6508  v =  0.0000  0.0000  1.0000  0.0000  0.0000  0.0000  0.0000  0.0000  0.0000  0.0000      0.0000  0.0000  0.0000  0.0000  0.0000  0.0000  0.0000  0.0000  0.0000  0.0000
  o =  0.6508  v =  0.0000  0.0000  0.0000  0.0000 -1.0000  0.0000  0.0000  0.0000  0.0000  0.0000      0.0000  0.0000  0.0000  0.0000  0.0000  0.0000  0.0000  0.0000  0.0000  0.0000
  o =  0.6508  v =  0.0000  0.0000  0.0000 -1.0000  0.0000  0.0000  0.0000  0.0000  0.0000  0.0000      0.0000  0.0000  0.0000  0.0000  0.0000  0.0000  0.0000  0.0000  0.0000  0.0000
atom =  18  type =  2  l = 2
 
 onsite density matrix
 
spin component  1
 
  0.6508  0.0000  0.0000  0.0000  0.0000
  0.0000  0.6508  0.0000  0.0000  0.0000
  0.0000  0.0000  0.6508  0.0000  0.0000
  0.0000  0.0000  0.0000  0.6508  0.0000
  0.0000  0.0000  0.0000  0.0000  0.6508
 
spin component  2
 
  0.4020  0.0000  0.0000  0.0000  0.0000
  0.0000  0.4020  0.0000  0.0000  0.0000
  0.0000  0.0000  0.4020  0.0000  0.0000
  0.0000  0.0000  0.0000  0.4020  0.0000
  0.0000  0.0000  0.0000  0.0000  0.4020
 
 occupancies and eigenvectors
 
  o =  0.4020  v =  0.0000  0.0000  0.0000  0.0000  0.0000  1.0000  0.0000  0.0000  0.0000  0.0000      0.0000  0.0000  0.0000  0.0000  0.0000  0.0000  0.0000  0.0000  0.0000  0.0000
  o =  0.4020  v =  0.0000  0.0000  0.0000  0.0000  0.0000  0.0000  1.0000  0.0000  0.0000  0.0000      0.0000  0.0000  0.0000  0.0000  0.0000  0.0000  0.0000  0.0000  0.0000  0.0000
  o =  0.4020  v =  0.0000  0.0000  0.0000  0.0000  0.0000  0.0000  0.0000  1.0000  0.0000  0.0000      0.0000  0.0000  0.0000  0.0000  0.0000  0.0000  0.0000  0.0000  0.0000  0.0000
  o =  0.4020  v =  0.0000  0.0000  0.0000  0.0000  0.0000  0.0000  0.0000  0.0000  0.0000 -1.0000      0.0000  0.0000  0.0000  0.0000  0.0000  0.0000  0.0000  0.0000  0.0000  0.0000
  o =  0.4020  v =  0.0000  0.0000  0.0000  0.0000  0.0000  0.0000  0.0000  0.0000 -1.0000  0.0000      0.0000  0.0000  0.0000  0.0000  0.0000  0.0000  0.0000  0.0000  0.0000  0.0000
  o =  0.6508  v =  1.0000  0.0000  0.0000  0.0000  0.0000  0.0000  0.0000  0.0000  0.0000  0.0000      0.0000  0.0000  0.0000  0.0000  0.0000  0.0000  0.0000  0.0000  0.0000  0.0000
  o =  0.6508  v =  0.0000  1.0000  0.0000  0.0000  0.0000  0.0000  0.0000  0.0000  0.0000  0.0000      0.0000  0.0000  0.0000  0.0000  0.0000  0.0000  0.0000  0.0000  0.0000  0.0000
  o =  0.6508  v =  0.0000  0.0000  1.0000  0.0000  0.0000  0.0000  0.0000  0.0000  0.0000  0.0000      0.0000  0.0000  0.0000  0.0000  0.0000  0.0000  0.0000  0.0000  0.0000  0.0000
  o =  0.6508  v =  0.0000  0.0000  0.0000  0.0000 -1.0000  0.0000  0.0000  0.0000  0.0000  0.0000      0.0000  0.0000  0.0000  0.0000  0.0000  0.0000  0.0000  0.0000  0.0000  0.0000
  o =  0.6508  v =  0.0000  0.0000  0.0000 -1.0000  0.0000  0.0000  0.0000  0.0000  0.0000  0.0000      0.0000  0.0000  0.0000  0.0000  0.0000  0.0000  0.0000  0.0000  0.0000  0.0000
atom =  19  type =  2  l = 2
 
 onsite density matrix
 
spin component  1
 
  0.6498  0.0000  0.0000  0.0000  0.0000
  0.0000  0.6498  0.0000  0.0000  0.0000
  0.0000  0.0000  0.6498  0.0000  0.0000
  0.0000  0.0000  0.0000  0.6498  0.0000
  0.0000  0.0000  0.0000  0.0000  0.6498
 
spin component  2
 
  0.4031  0.0000  0.0000  0.0000  0.0000
  0.0000  0.4031  0.0000  0.0000  0.0000
  0.0000  0.0000  0.4031  0.0000  0.0000
  0.0000  0.0000  0.0000  0.4031  0.0000
  0.0000  0.0000  0.0000  0.0000  0.4031
 
 occupancies and eigenvectors
 
  o =  0.4031  v =  0.0000  0.0000  0.0000  0.0000  0.0000  1.0000  0.0000  0.0000  0.0000  0.0000      0.0000  0.0000  0.0000  0.0000  0.0000  0.0000  0.0000  0.0000  0.0000  0.0000
  o =  0.4031  v =  0.0000  0.0000  0.0000  0.0000  0.0000  0.0000  1.0000  0.0000  0.0000  0.0000      0.0000  0.0000  0.0000  0.0000  0.0000  0.0000  0.0000  0.0000  0.0000  0.0000
  o =  0.4031  v =  0.0000  0.0000  0.0000  0.0000  0.0000  0.0000  0.0000  1.0000  0.0000  0.0000      0.0000  0.0000  0.0000  0.0000  0.0000  0.0000  0.0000  0.0000  0.0000  0.0000
  o =  0.4031  v =  0.0000  0.0000  0.0000  0.0000  0.0000  0.0000  0.0000  0.0000  0.0000 -1.0000      0.0000  0.0000  0.0000  0.0000  0.0000  0.0000  0.0000  0.0000  0.0000  0.0000
  o =  0.4031  v =  0.0000  0.0000  0.0000  0.0000  0.0000  0.0000  0.0000  0.0000 -1.0000  0.0000      0.0000  0.0000  0.0000  0.0000  0.0000  0.0000  0.0000  0.0000  0.0000  0.0000
  o =  0.6498  v =  1.0000  0.0000  0.0000  0.0000  0.0000  0.0000  0.0000  0.0000  0.0000  0.0000      0.0000  0.0000  0.0000  0.0000  0.0000  0.0000  0.0000  0.0000  0.0000  0.0000
  o =  0.6498  v =  0.0000  1.0000  0.0000  0.0000  0.0000  0.0000  0.0000  0.0000  0.0000  0.0000      0.0000  0.0000  0.0000  0.0000  0.0000  0.0000  0.0000  0.0000  0.0000  0.0000
  o =  0.6498  v =  0.0000  0.0000  1.0000  0.0000  0.0000  0.0000  0.0000  0.0000  0.0000  0.0000      0.0000  0.0000  0.0000  0.0000  0.0000  0.0000  0.0000  0.0000  0.0000  0.0000
  o =  0.6498  v =  0.0000  0.0000  0.0000  0.0000 -1.0000  0.0000  0.0000  0.0000  0.0000  0.0000      0.0000  0.0000  0.0000  0.0000  0.0000  0.0000  0.0000  0.0000  0.0000  0.0000
  o =  0.6498  v =  0.0000  0.0000  0.0000 -1.0000  0.0000  0.0000  0.0000  0.0000  0.0000  0.0000      0.0000  0.0000  0.0000  0.0000  0.0000  0.0000  0.0000  0.0000  0.0000  0.0000
atom =  20  type =  2  l = 2
 
 onsite density matrix
 
spin component  1
 
  0.6505  0.0000  0.0000  0.0000  0.0000
  0.0000  0.6505  0.0000  0.0000  0.0000
  0.0000  0.0000  0.6505  0.0000  0.0000
  0.0000  0.0000  0.0000  0.6505  0.0000
  0.0000  0.0000  0.0000  0.0000  0.6505
 
spin component  2
 
  0.4023  0.0000  0.0000  0.0000  0.0000
  0.0000  0.4023  0.0000  0.0000  0.0000
  0.0000  0.0000  0.4023  0.0000  0.0000
  0.0000  0.0000  0.0000  0.4023  0.0000
  0.0000  0.0000  0.0000  0.0000  0.4023
 
 occupancies and eigenvectors
 
  o =  0.4023  v =  0.0000  0.0000  0.0000  0.0000  0.0000  1.0000  0.0000  0.0000  0.0000  0.0000      0.0000  0.0000  0.0000  0.0000  0.0000  0.0000  0.0000  0.0000  0.0000  0.0000
  o =  0.4023  v =  0.0000  0.0000  0.0000  0.0000  0.0000  0.0000  1.0000  0.0000  0.0000  0.0000      0.0000  0.0000  0.0000  0.0000  0.0000  0.0000  0.0000  0.0000  0.0000  0.0000
  o =  0.4023  v =  0.0000  0.0000  0.0000  0.0000  0.0000  0.0000  0.0000  1.0000  0.0000  0.0000      0.0000  0.0000  0.0000  0.0000  0.0000  0.0000  0.0000  0.0000  0.0000  0.0000
  o =  0.4023  v =  0.0000  0.0000  0.0000  0.0000  0.0000  0.0000  0.0000  0.0000  0.0000 -1.0000      0.0000  0.0000  0.0000  0.0000  0.0000  0.0000  0.0000  0.0000  0.0000  0.0000
  o =  0.4023  v =  0.0000  0.0000  0.0000  0.0000  0.0000  0.0000  0.0000  0.0000 -1.0000  0.0000      0.0000  0.0000  0.0000  0.0000  0.0000  0.0000  0.0000  0.0000  0.0000  0.0000
  o =  0.6505  v =  1.0000  0.0000  0.0000  0.0000  0.0000  0.0000  0.0000  0.0000  0.0000  0.0000      0.0000  0.0000  0.0000  0.0000  0.0000  0.0000  0.0000  0.0000  0.0000  0.0000
  o =  0.6505  v =  0.0000  1.0000  0.0000  0.0000  0.0000  0.0000  0.0000  0.0000  0.0000  0.0000      0.0000  0.0000  0.0000  0.0000  0.0000  0.0000  0.0000  0.0000  0.0000  0.0000
  o =  0.6505  v =  0.0000  0.0000  1.0000  0.0000  0.0000  0.0000  0.0000  0.0000  0.0000  0.0000      0.0000  0.0000  0.0000  0.0000  0.0000  0.0000  0.0000  0.0000  0.0000  0.0000
  o =  0.6505  v =  0.0000  0.0000  0.0000  0.0000 -1.0000  0.0000  0.0000  0.0000  0.0000  0.0000      0.0000  0.0000  0.0000  0.0000  0.0000  0.0000  0.0000  0.0000  0.0000  0.0000
  o =  0.6505  v =  0.0000  0.0000  0.0000 -1.0000  0.0000  0.0000  0.0000  0.0000  0.0000  0.0000      0.0000  0.0000  0.0000  0.0000  0.0000  0.0000  0.0000  0.0000  0.0000  0.0000
atom =  21  type =  2  l = 2
 
 onsite density matrix
 
spin component  1
 
  0.6506  0.0000  0.0000  0.0000  0.0000
  0.0000  0.6506  0.0000  0.0000  0.0000
  0.0000  0.0000  0.6506  0.0000  0.0000
  0.0000  0.0000  0.0000  0.6506  0.0000
  0.0000  0.0000  0.0000  0.0000  0.6506
 
spin component  2
 
  0.4023  0.0000  0.0000  0.0000  0.0000
  0.0000  0.4023  0.0000  0.0000  0.0000
  0.0000  0.0000  0.4023  0.0000  0.0000
  0.0000  0.0000  0.0000  0.4023  0.0000
  0.0000  0.0000  0.0000  0.0000  0.4023
 
 occupancies and eigenvectors
 
  o =  0.4023  v =  0.0000  0.0000  0.0000  0.0000  0.0000  0.0000  0.0000  0.0000  0.7071  0.7071      0.0000  0.0000  0.0000  0.0000  0.0000  0.0000  0.0000  0.0000  0.0000  0.0000
  o =  0.4023  v =  0.0000  0.0000  0.0000  0.0000  0.0000  1.0000  0.0000  0.0000  0.0000  0.0000      0.0000  0.0000  0.0000  0.0000  0.0000  0.0000  0.0000  0.0000  0.0000  0.0000
  o =  0.4023  v =  0.0000  0.0000  0.0000  0.0000  0.0000  0.0000  1.0000  0.0000  0.0000  0.0000      0.0000  0.0000  0.0000  0.0000  0.0000  0.0000  0.0000  0.0000  0.0000  0.0000
  o =  0.4023  v =  0.0000  0.0000  0.0000  0.0000  0.0000  0.0000  0.0000  1.0000  0.0000  0.0000      0.0000  0.0000  0.0000  0.0000  0.0000  0.0000  0.0000  0.0000  0.0000  0.0000
  o =  0.4023  v =  0.0000  0.0000  0.0000  0.0000  0.0000  0.0000  0.0000  0.0000 -0.7071  0.7071      0.0000  0.0000  0.0000  0.0000  0.0000  0.0000  0.0000  0.0000  0.0000  0.0000
  o =  0.6506  v =  0.0000  1.0000  0.0000  0.0000  0.0000  0.0000  0.0000  0.0000  0.0000  0.0000      0.0000  0.0000  0.0000  0.0000  0.0000  0.0000  0.0000  0.0000  0.0000  0.0000
  o =  0.6506  v =  0.0000  0.0000  1.0000  0.0000  0.0000  0.0000  0.0000  0.0000  0.0000  0.0000      0.0000  0.0000  0.0000  0.0000  0.0000  0.0000  0.0000  0.0000  0.0000  0.0000
  o =  0.6506  v =  0.0000  0.0000  0.0000  0.0000 -1.0000  0.0000  0.0000  0.0000  0.0000  0.0000      0.0000  0.0000  0.0000  0.0000  0.0000  0.0000  0.0000  0.0000  0.0000  0.0000
  o =  0.6506  v =  0.0000  0.0000  0.0000 -1.0000  0.0000  0.0000  0.0000  0.0000  0.0000  0.0000      0.0000  0.0000  0.0000  0.0000  0.0000  0.0000  0.0000  0.0000  0.0000  0.0000
  o =  0.6506  v =  1.0000  0.0000  0.0000  0.0000  0.0000  0.0000  0.0000  0.0000  0.0000  0.0000      0.0000  0.0000  0.0000  0.0000  0.0000  0.0000  0.0000  0.0000  0.0000  0.0000
atom =  22  type =  2  l = 2
 
 onsite density matrix
 
spin component  1
 
  0.6498  0.0000  0.0000  0.0000  0.0000
  0.0000  0.6498  0.0000  0.0000  0.0000
  0.0000  0.0000  0.6498  0.0000  0.0000
  0.0000  0.0000  0.0000  0.6498  0.0000
  0.0000  0.0000  0.0000  0.0000  0.6498
 
spin component  2
 
  0.4031  0.0000  0.0000  0.0000  0.0000
  0.0000  0.4031  0.0000  0.0000  0.0000
  0.0000  0.0000  0.4031  0.0000  0.0000
  0.0000  0.0000  0.0000  0.4031  0.0000
  0.0000  0.0000  0.0000  0.0000  0.4031
 
 occupancies and eigenvectors
 
  o =  0.4031  v =  0.0000  0.0000  0.0000  0.0000  0.0000  1.0000  0.0000  0.0000  0.0000  0.0000      0.0000  0.0000  0.0000  0.0000  0.0000  0.0000  0.0000  0.0000  0.0000  0.0000
  o =  0.4031  v =  0.0000  0.0000  0.0000  0.0000  0.0000  0.0000  1.0000  0.0000  0.0000  0.0000      0.0000  0.0000  0.0000  0.0000  0.0000  0.0000  0.0000  0.0000  0.0000  0.0000
  o =  0.4031  v =  0.0000  0.0000  0.0000  0.0000  0.0000  0.0000  0.0000  1.0000  0.0000  0.0000      0.0000  0.0000  0.0000  0.0000  0.0000  0.0000  0.0000  0.0000  0.0000  0.0000
  o =  0.4031  v =  0.0000  0.0000  0.0000  0.0000  0.0000  0.0000  0.0000  0.0000  0.0000 -1.0000      0.0000  0.0000  0.0000  0.0000  0.0000  0.0000  0.0000  0.0000  0.0000  0.0000
  o =  0.4031  v =  0.0000  0.0000  0.0000  0.0000  0.0000  0.0000  0.0000  0.0000 -1.0000  0.0000      0.0000  0.0000  0.0000  0.0000  0.0000  0.0000  0.0000  0.0000  0.0000  0.0000
[...]
   0.150E+03 -.169E+02 0.183E+03   -.161E+03 0.185E+02 -.198E+03   0.116E+02 -.158E+01 0.155E+02   -.161E-04 -.131E-02 0.790E-03
   0.152E+03 -.135E+02 0.194E+03   -.164E+03 0.142E+02 -.209E+03   0.118E+02 -.701E+00 0.154E+02   -.267E-03 -.631E-03 -.147E-03
   0.155E+03 0.147E+02 0.212E+03   -.166E+03 -.158E+02 -.228E+03   0.115E+02 0.111E+01 0.159E+02   0.796E-04 -.539E-03 -.415E-03
   0.166E+03 0.177E+02 0.197E+03   -.178E+03 -.181E+02 -.212E+03   0.120E+02 0.441E+00 0.152E+02   0.268E-03 0.826E-03 0.334E-03
   0.162E+03 -.851E+01 0.205E+03   -.173E+03 0.904E+01 -.220E+03   0.113E+02 -.534E+00 0.153E+02   0.390E-03 0.101E-02 -.750E-03
   -.112E+03 0.143E+03 0.205E+03   0.119E+03 -.153E+03 -.220E+03   -.671E+01 0.105E+02 0.149E+02   0.355E-03 0.755E-03 0.570E-03
   -.624E+02 0.153E+03 0.188E+03   0.677E+02 -.164E+03 -.203E+03   -.532E+01 0.108E+02 0.154E+02   0.516E-03 0.104E-02 0.770E-03
   -.876E+02 0.125E+03 0.194E+03   0.941E+02 -.135E+03 -.209E+03   -.651E+01 0.987E+01 0.153E+02   -.578E-03 -.399E-03 0.256E-03
   -.651E+02 0.141E+03 0.212E+03   0.699E+02 -.152E+03 -.228E+03   -.480E+01 0.105E+02 0.159E+02   -.324E-03 -.384E-03 -.714E-03
   -.695E+02 0.132E+03 0.232E+03   0.765E+02 -.141E+03 -.249E+03   -.703E+01 0.927E+01 0.173E+02   -.108E-02 -.411E-03 0.127E-02
   -.896E+02 0.121E+03 0.183E+03   0.967E+02 -.130E+03 -.199E+03   -.715E+01 0.920E+01 0.155E+02   -.816E-03 -.745E-03 0.723E-04
   -.674E+02 0.153E+03 0.197E+03   0.730E+02 -.163E+03 -.212E+03   -.563E+01 0.106E+02 0.152E+02   0.808E-03 0.648E-03 -.843E-04
   -.887E+02 0.136E+03 0.205E+03   0.949E+02 -.145E+03 -.220E+03   -.613E+01 0.953E+01 0.153E+02   0.427E-03 0.850E-03 -.337E-03
   -.150E+03 0.169E+02 -.183E+03   0.161E+03 -.185E+02 0.198E+03   -.116E+02 0.158E+01 -.155E+02   0.161E-04 0.131E-02 -.790E-03
   -.149E+03 -.596E+01 -.232E+03   0.160E+03 0.454E+01 0.249E+03   -.115E+02 0.143E+01 -.173E+02   0.198E-04 0.905E-03 -.650E-03
   -.164E+03 -.226E+02 -.188E+03   0.176E+03 0.233E+02 0.203E+03   -.120E+02 -.788E+00 -.154E+02   -.359E-03 -.958E-03 -.148E-03
   -.180E+03 0.257E+02 -.205E+03   0.193E+03 -.262E+02 0.220E+03   -.125E+02 0.541E+00 -.149E+02   -.836E-03 -.647E-03 -.116E-02
   -.162E+03 0.851E+01 -.205E+03   0.173E+03 -.904E+01 0.220E+03   -.113E+02 0.534E+00 -.153E+02   -.390E-03 -.101E-02 0.750E-03
   -.166E+03 -.177E+02 -.197E+03   0.178E+03 0.181E+02 0.212E+03   -.120E+02 -.441E+00 -.152E+02   -.268E-03 -.826E-03 -.334E-03
   -.155E+03 -.147E+02 -.212E+03   0.166E+03 0.158E+02 0.228E+03   -.115E+02 -.111E+01 -.159E+02   -.796E-04 0.539E-03 0.415E-03
   -.152E+03 0.135E+02 -.194E+03   0.164E+03 -.142E+02 0.209E+03   -.118E+02 0.701E+00 -.154E+02   0.267E-03 0.631E-03 0.147E-03
   0.856E+02 0.148E+03 0.329E+01   -.985E+02 -.171E+03 -.178E+02   0.129E+02 0.224E+02 0.145E+02   0.503E-03 0.439E-03 -.522E-03
   0.660E+02 0.115E+03 -.231E+03   -.711E+02 -.124E+03 0.247E+03   0.509E+01 0.880E+01 -.155E+02   0.820E-05 0.838E-03 -.205E-02
   0.825E+02 0.136E+03 -.199E+03   -.882E+02 -.147E+03 0.215E+03   0.568E+01 0.108E+02 -.154E+02   -.493E-03 -.127E-03 0.573E-03
   0.683E+02 0.139E+03 -.208E+03   -.737E+02 -.149E+03 0.223E+03   0.543E+01 0.102E+02 -.154E+02   -.223E-03 -.361E-03 -.288E-03
   0.763E+02 0.139E+03 -.200E+03   -.828E+02 -.149E+03 0.215E+03   0.648E+01 0.103E+02 -.154E+02   -.386E-03 -.332E-03 0.511E-03
   0.861E+02 0.128E+03 -.208E+03   -.922E+02 -.138E+03 0.223E+03   0.613E+01 0.981E+01 -.154E+02   0.286E-03 -.519E-03 -.138E-03
   0.756E+02 0.131E+03 -.213E+03   -.811E+02 -.140E+03 0.229E+03   0.543E+01 0.937E+01 -.153E+02   0.521E-03 0.483E-03 0.260E-03
   0.822E+02 0.142E+03 -.187E+03   -.882E+02 -.153E+03 0.202E+03   0.596E+01 0.103E+02 -.154E+02   0.262E-03 0.754E-03 0.355E-03
   0.896E+02 -.121E+03 -.183E+03   -.967E+02 0.130E+03 0.199E+03   0.715E+01 -.920E+01 -.155E+02   0.816E-03 0.745E-03 -.723E-04
   0.695E+02 -.132E+03 -.232E+03   -.765E+02 0.141E+03 0.249E+03   0.703E+01 -.927E+01 -.173E+02   0.108E-02 0.411E-03 -.127E-02
   0.887E+02 -.136E+03 -.205E+03   -.949E+02 0.145E+03 0.220E+03   0.613E+01 -.953E+01 -.153E+02   -.427E-03 -.850E-03 0.337E-03
   0.674E+02 -.153E+03 -.197E+03   -.730E+02 0.163E+03 0.212E+03   0.563E+01 -.106E+02 -.152E+02   -.808E-03 -.648E-03 0.843E-04
   0.624E+02 -.153E+03 -.188E+03   -.677E+02 0.164E+03 0.203E+03   0.532E+01 -.108E+02 -.154E+02   -.516E-03 -.104E-02 -.770E-03
   0.112E+03 -.143E+03 -.205E+03   -.119E+03 0.153E+03 0.220E+03   0.671E+01 -.105E+02 -.149E+02   -.355E-03 -.755E-03 -.570E-03
   0.651E+02 -.141E+03 -.212E+03   -.699E+02 0.152E+03 0.228E+03   0.480E+01 -.105E+02 -.159E+02   0.324E-03 0.384E-03 0.714E-03
   0.876E+02 -.125E+03 -.194E+03   -.941E+02 0.135E+03 0.209E+03   0.651E+01 -.987E+01 -.153E+02   0.578E-03 0.399E-03 -.256E-03
 -----------------------------------------------------------------------------------------------
   0.238E-08 -.415E-08 0.108E-09   0.384E-12 -.426E-12 -.171E-12   0.711E-14 0.355E-14 0.711E-13   -.684E-12 0.552E-12 -.214E-11
 
 
 POSITION                                       TOTAL-FORCE (eV/Angst)
 -----------------------------------------------------------------------------------
      0.02473      0.04255      0.00315        -0.000675     -0.001871     -0.001842
      4.94234      8.56289      4.16893        -0.005989     -0.010991      0.003874
     -2.49927      4.32914     -0.00107        -0.003228      0.002621      0.000407
      7.47240      4.34205      4.11312        -0.007284      0.003597     -0.000114
     -0.00129      8.65777      8.22410         0.003228     -0.002621     -0.000407
      0.02336      8.64488      4.11169         0.007284     -0.003597      0.000114
      2.47288      4.28731      8.22217         0.000675      0.001871      0.001842
      2.55342      4.42403      4.05589         0.005989      0.010991     -0.003874
     -0.01973      2.98403      2.12772        -0.011228     -0.003484      0.015329
     -0.09634      2.85472      6.09712         0.003692      0.017528     -0.023439
     -2.52246      7.24762      2.06112         0.001249      0.010439     -0.005153
     -2.48276      7.15017      6.18009        -0.019187     -0.011397     -0.010124
      5.06311      2.90339      2.04366         0.001429      0.016669      0.007030
      4.95663      2.89033      6.16434        -0.013973     -0.008016      0.003199
      2.50337      7.21901      2.00042         0.013862     -0.004030      0.005596
      2.49705      7.20883      6.22370        -0.000010     -0.007082     -0.005719
      2.59395      1.47514      2.12820        -0.003692     -0.017528      0.023439
      2.51733      1.34582      6.09760         0.011228      0.003484     -0.015329
     -0.01779      5.83675      2.04294         0.019187      0.011397      0.010124
      0.02190      5.73930      6.16191        -0.001249     -0.010439      0.005153
      7.53730      1.43953      2.06276         0.013973      0.008016     -0.003199
      7.43082      1.42647      6.18344        -0.001429     -0.016669     -0.007030
      4.99871      5.77809      2.00112         0.000010      0.007082      0.005719
      4.99239      5.76792      6.22440        -0.013862      0.004030     -0.005596
      1.62658      2.81706      1.20062         0.014104      0.029736      0.005495
      1.45856      2.53019      4.69068         0.027439      0.028915     -0.002912
     -0.92471      7.15783      1.03209         0.003401     -0.007204     -0.013006
     -0.87439      7.08388      5.17057         0.015077      0.005128     -0.034138
      6.66109      2.77894      1.03337        -0.007391     -0.010316     -0.008375
      6.56868      2.78511      5.17266         0.003640      0.020064     -0.031756
      4.09474      7.09263      0.96971        -0.008412     -0.012881      0.051367
      4.10808      7.11786      5.22457         0.008885      0.013114     -0.003856
      1.72420      0.10360      1.16705        -0.001807      0.005276      0.006911
     -3.20737      8.55417      5.12951         0.031744      0.010306     -0.000168
     -0.71984      4.33204      1.08099        -0.013281     -0.010832     -0.050444
     -0.73009      4.33819      5.11219         0.001627      0.004851      0.000139
      6.82807      0.02992      1.00083        -0.001770     -0.021712      0.018957
      1.74552      8.62862      5.20373        -0.022344     -0.021431     -0.008760
      4.32327      4.30750      0.99147         0.005422     -0.020172      0.034270
      4.24305      4.35635      5.19391        -0.000423      0.000323     -0.012780
     -0.77289      1.54620      1.16450         0.005743     -0.001382      0.009705
      9.00915      1.50154      5.13354        -0.005312      0.021047     -0.010190
     -3.38817      5.92882      0.99972        -0.019310     -0.019102      0.006154
      6.59685      5.82637      5.20436         0.002847     -0.023350     -0.006043
      4.11020      1.54303      1.08171         0.011286     -0.019868     -0.060002
      4.11829      1.54051      5.11319         0.011943     -0.007672     -0.004417
      1.56885      5.89783      0.99183        -0.024771     -0.007677      0.028757
      1.64838      5.85428      5.19294         0.010933     -0.000484     -0.021906
     -1.77047      8.64872      3.11084        -0.001627     -0.004851     -0.000139
     -1.78072      8.65488      7.14204         0.013281      0.010832      0.050444
      0.70681      4.43274      3.09353        -0.031744     -0.010306      0.000168
      0.77341      4.22626      7.05827         0.001807     -0.005276     -0.006911
      3.25271      8.63057      3.03091         0.000423     -0.000323      0.012780
      8.17066      0.02236      7.23564        -0.005422      0.020172     -0.034270
      5.75024      4.35830      3.02109         0.022344      0.021431      0.008760
      5.66585      4.29994      7.22627         0.001770      0.021712     -0.018957
      1.03904      1.79966      3.53464        -0.027439     -0.028915      0.002912
      0.87102      1.51279      7.02469        -0.014104     -0.029736     -0.005495
     -1.62617      5.90303      3.05246        -0.015077     -0.005128      0.034138
     -1.57585      5.82909      7.19094        -0.003401      0.007204      0.013006
      5.92524      1.54475      3.05444        -0.003640     -0.020064      0.031756
      5.83283      1.55092      7.19373         0.007391      0.010316      0.008375
      3.38768      5.86907      3.00025        -0.008885     -0.013114      0.003856
      3.40102      5.89429      7.25511         0.008412      0.012881     -0.051367
      8.37563      2.78935      3.11391        -0.011943      0.007672      0.004417
      8.38373      2.78683      7.14539        -0.011286      0.019868      0.060002
      5.84738      7.13265      3.03188        -0.010933      0.000484      0.021906
     -4.06941      7.08909      7.23120         0.024771      0.007677     -0.028757
      3.48478      2.82832      3.09356         0.005312     -0.021047      0.010190
      3.27050      2.78366      7.06082        -0.005743      0.001382     -0.009705
      0.89891      7.16055      3.02046        -0.002847      0.023350      0.006043
      0.88761      7.05810      7.22331         0.019310      0.019102     -0.006154
 -----------------------------------------------------------------------------------
    total drift:                                0.000000     -0.000000      0.000000


--------------------------------------------------------------------------------------------------------



  FREE ENERGIE OF THE ION-ELECTRON SYSTEM (eV)
  ---------------------------------------------------
  free  energy   TOTEN  =      -443.04487110 eV

  energy  without entropy=     -443.04487110  energy(sigma->0) =     -443.04487110
 


--------------------------------------------------------------------------------------------------------


    POTLOK:  cpu time    1.2213: real time    1.2486


--------------------------------------------------------------------------------------------------------


     LOOP+:  cpu time 2697.6362: real time 2722.3213
    4ORBIT:  cpu time    0.0000: real time    0.0000
 


 total charge     
 
# of ion       s       p       d       tot
------------------------------------------
    1        2.014   0.045   0.000   2.059
    2        2.016   0.048   0.000   2.064
    3        2.015   0.047   0.000   2.062
    4        2.016   0.048   0.000   2.065
    5        2.015   0.047   0.000   2.062
    6        2.016   0.048   0.000   2.065
    7        2.014   0.045   0.000   2.059
    8        2.016   0.048   0.000   2.064
    9        0.361   6.463   4.852  11.676
   10        0.361   6.463   4.853  11.677
   11        0.364   6.483   4.833  11.679
   12        0.365   6.487   4.839  11.691
   13        0.365   6.487   4.839  11.692
   14        0.364   6.482   4.833  11.679
   15        0.364   6.484   4.834  11.683
   16        0.364   6.484   4.834  11.682
   17        0.361   6.463   4.853  11.677
   18        0.361   6.463   4.852  11.676
   19        0.365   6.487   4.839  11.691
   20        0.364   6.483   4.833  11.679
   21        0.364   6.482   4.833  11.679
   22        0.365   6.487   4.839  11.692
   23        0.364   6.484   4.834  11.682
   24        0.364   6.484   4.834  11.683
   25        1.591   3.332   0.000   4.923
   26        1.585   3.320   0.000   4.905
   27        1.592   3.329   0.000   4.921
   28        1.593   3.322   0.000   4.915
   29        1.592   3.329   0.000   4.921
   30        1.593   3.322   0.000   4.916
   31        1.594   3.320   0.000   4.915
   32        1.591   3.337   0.000   4.928
   33        1.592   3.328   0.000   4.920
   34        1.595   3.330   0.000   4.924
   35        1.593   3.331   0.000   4.925
   36        1.593   3.330   0.000   4.923
   37        1.593   3.322   0.000   4.916
   38        1.592   3.331   0.000   4.923
   39        1.594   3.318   0.000   4.911
   40        1.592   3.328   0.000   4.920
   41        1.592   3.328   0.000   4.920
   42        1.595   3.330   0.000   4.924
   43        1.593   3.322   0.000   4.916
   44        1.592   3.331   0.000   4.923
   45        1.593   3.331   0.000   4.925
   46        1.593   3.330   0.000   4.923
   47        1.594   3.318   0.000   4.911
   48        1.593   3.328   0.000   4.920
   49        1.593   3.330   0.000   4.923
   50        1.593   3.331   0.000   4.925
   51        1.595   3.330   0.000   4.924
   52        1.592   3.328   0.000   4.920
   53        1.592   3.328   0.000   4.920
   54        1.594   3.318   0.000   4.911
   55        1.592   3.331   0.000   4.923
   56        1.593   3.322   0.000   4.916
   57        1.585   3.320   0.000   4.905
   58        1.591   3.332   0.000   4.923
   59        1.593   3.322   0.000   4.915
   60        1.592   3.329   0.000   4.921
   61        1.593   3.322   0.000   4.916
   62        1.592   3.329   0.000   4.921
   63        1.591   3.337   0.000   4.928
   64        1.594   3.320   0.000   4.915
   65        1.593   3.330   0.000   4.923
   66        1.593   3.331   0.000   4.925
   67        1.593   3.328   0.000   4.920
   68        1.594   3.318   0.000   4.911
   69        1.595   3.330   0.000   4.924
   70        1.592   3.328   0.000   4.920
   71        1.592   3.331   0.000   4.923
   72        1.593   3.322   0.000   4.916
--------------------------------------------------
tot         98.387 263.737  77.432 439.555
 


 magnetization (x)
 
# of ion       s       p       d       tot
------------------------------------------
    1        0.001   0.002   0.000   0.003
    2        0.001   0.002   0.000   0.003
    3        0.001   0.002   0.000   0.003
    4        0.001   0.002   0.000   0.003
    5        0.001   0.002   0.000   0.003
    6        0.001   0.002   0.000   0.003
    7        0.001   0.002   0.000   0.003
    8        0.001   0.002   0.000   0.003
    9        0.026   0.039   3.007   3.072
   10        0.026   0.039   3.006   3.071
   11        0.028   0.045   2.991   3.064
   12        0.028   0.045   2.973   3.045
   13        0.028   0.045   2.972   3.044
   14        0.028   0.045   2.992   3.065
   15        0.027   0.045   2.975   3.047
   16        0.027   0.045   2.976   3.048
   17        0.026   0.039   3.006   3.071
   18        0.026   0.039   3.007   3.072
   19        0.028   0.045   2.973   3.045
   20        0.028   0.045   2.991   3.064
   21        0.028   0.045   2.992   3.065
   22        0.028   0.045   2.972   3.044
   23        0.027   0.045   2.976   3.048
   24        0.027   0.045   2.975   3.047
   25       -0.005  -0.422   0.000  -0.426
   26        0.001  -0.143   0.000  -0.142
   27       -0.006  -0.432   0.000  -0.438
   28       -0.006  -0.445   0.000  -0.452
   29       -0.006  -0.432   0.000  -0.438
   30       -0.006  -0.445   0.000  -0.451
   31       -0.007  -0.450   0.000  -0.457
   32       -0.006  -0.426   0.000  -0.431
   33       -0.005  -0.418   0.000  -0.423
   34       -0.006  -0.440   0.000  -0.446
   35       -0.004  -0.393   0.000  -0.398
   36       -0.006  -0.427   0.000  -0.433
   37       -0.007  -0.445   0.000  -0.452
   38       -0.005  -0.426   0.000  -0.432
   39       -0.007  -0.452   0.000  -0.459
   40       -0.006  -0.442   0.000  -0.447
   41       -0.005  -0.419   0.000  -0.424
   42       -0.006  -0.440   0.000  -0.446
   43       -0.007  -0.445   0.000  -0.452
   44       -0.005  -0.426   0.000  -0.432
   45       -0.004  -0.393   0.000  -0.397
   46       -0.006  -0.426   0.000  -0.432
   47       -0.007  -0.452   0.000  -0.459
   48       -0.006  -0.442   0.000  -0.448
   49       -0.006  -0.427   0.000  -0.433
   50       -0.004  -0.393   0.000  -0.398
   51       -0.006  -0.440   0.000  -0.446
   52       -0.005  -0.418   0.000  -0.423
   53       -0.006  -0.442   0.000  -0.447
   54       -0.007  -0.452   0.000  -0.459
   55       -0.005  -0.426   0.000  -0.432
   56       -0.007  -0.445   0.000  -0.452
   57        0.001  -0.143   0.000  -0.142
   58       -0.005  -0.422   0.000  -0.426
   59       -0.006  -0.445   0.000  -0.452
   60       -0.006  -0.432   0.000  -0.438
   61       -0.006  -0.445   0.000  -0.451
   62       -0.006  -0.432   0.000  -0.438
   63       -0.006  -0.426   0.000  -0.431
   64       -0.007  -0.450   0.000  -0.457
   65       -0.006  -0.426   0.000  -0.432
   66       -0.004  -0.393   0.000  -0.397
   67       -0.006  -0.442   0.000  -0.448
   68       -0.007  -0.452   0.000  -0.459
   69       -0.006  -0.440   0.000  -0.446
   70       -0.005  -0.419   0.000  -0.424
   71       -0.005  -0.426   0.000  -0.432
   72       -0.007  -0.445   0.000  -0.452
--------------------------------------------------
tot          0.177 -19.451  47.784  28.510
 
 BZINTS: Fermi energy:  2.508426;520.000000 electrons
         Band energy:***********;  BLOECHL correction: -0.005343

 total amount of memory used by VASP MPI-rank0   254312. kBytes
=======================================================================

   base      :      30000. kBytes
   nonlr-proj:      37507. kBytes
   fftplans  :       5472. kBytes
   grid      :      41200. kBytes
   one-center:       2239. kBytes
   wavefun   :     137894. kBytes
 
  
  
 General timing and accounting informations for this job:
 ========================================================
  
                  Total CPU time used (sec):     2772.373
                            User time (sec):     2736.506
                          System time (sec):       35.866
                         Elapsed time (sec):     2798.153
  
                   Maximum memory used (kb):      382608.
                   Average memory used (kb):           0.
  
                          Minor page faults:       913066
                          Major page faults:            0
                 Voluntary context switches:         2978
