 vasp.5.4.4.18Apr17-6-g9f103f2a35 (build Dec 07 2017 12:23:07) complex          
  
 executed on     UA-Leibniz-2016b date 2018.11.07  15:58:04
 running on   28 total cores
 distrk:  each k-point on   28 cores,    1 groups
 distr:  one band on NCORES_PER_BAND=   1 cores,   28 groups


--------------------------------------------------------------------------------------------------------


 INCAR:
 POTCAR:    PAW_PBE Li_sv 10Sep2004               
 POTCAR:    PAW_PBE Mn_pv 02Aug2007               
 POTCAR:    PAW_PBE O 08Apr2002                   

 ----------------------------------------------------------------------------- 
|                                                                             |
|           W    W    AA    RRRRR   N    N  II  N    N   GGGG   !!!           |
|           W    W   A  A   R    R  NN   N  II  NN   N  G    G  !!!           |
|           W    W  A    A  R    R  N N  N  II  N N  N  G       !!!           |
|           W WW W  AAAAAA  RRRRR   N  N N  II  N  N N  G  GGG   !            |
|           WW  WW  A    A  R   R   N   NN  II  N   NN  G    G                |
|           W    W  A    A  R    R  N    N  II  N    N   GGGG   !!!           |
|                                                                             |
|      For optimal performance we recommend to set                            |
|        NCORE= 4 - approx SQRT( number of cores)                             |
|      NCORE specifies how many cores store one orbital (NPAR=cpu/NCORE).     |
|      This setting can  greatly improve the performance of VASP for DFT.     |
|      The default,   NCORE=1            might be grossly inefficient         |
|      on modern multi-core architectures or massively parallel machines.     |
|      Do your own testing !!!!                                               |
|      Unfortunately you need to use the default for GW and RPA calculations. |
|      (for HF NCORE is supported but not extensively tested yet)             |
|                                                                             |
 ----------------------------------------------------------------------------- 

 POTCAR:    PAW_PBE Li_sv 10Sep2004               
   VRHFIN =Li: 1s2s2p                                                           
   LEXCH  = PE                                                                  
   EATOM  =   202.7858 eV,   14.9043 Ry                                         
                                                                                
   TITEL  = PAW_PBE Li_sv 10Sep2004                                             
   LULTRA =        F    use ultrasoft PP ?                                      
   IUNSCR =        0    unscreen: 0-lin 1-nonlin 2-no                           
   RPACOR =    0.000    partial core radius                                     
   POMASS =    7.010; ZVAL   =    3.000    mass and valenz                      
   RCORE  =    1.700    outmost cutoff radius                                   
   RWIGS  =    2.050; RWIGS  =    1.085    wigner-seitz radius (au A)           
   ENMAX  =  499.034; ENMIN  =  374.276 eV                                      
   ICORE  =        2    local potential                                         
   LCOR   =        T    correct aug charges                                     
   LPAW   =        T    paw PP                                                  
   EAUG   =  628.945                                                            
   RMAX   =    1.732    core radius for proj-oper                               
   RAUG   =    1.300    factor for augmentation sphere                          
   RDEP   =    1.728    radius for radial grids                                 
   RDEPT  =    1.329    core radius for aug-charge                              
                                                                                
   Atomic configuration                                                         
    4 entries                                                                   
     n  l   j            E        occ.                                          
     1  0  0.50       -51.8549   2.0000                                         
     2  0  0.50        -2.8742   1.0000                                         
     2  1  0.50        -1.3606   0.0000                                         
     3  2  1.50        -1.3606   0.0000                                         
   Description                                                                  
     l       E           TYP  RCUT    TYP  RCUT                                 
     0    -51.8548813     23  1.400                                             
     0     -2.8742052     23  1.700                                             
     1     -1.3605826     23  1.400                                             
     2     -1.3605826     23  1.400                                             
  local pseudopotential read in
  atomic valenz-charges read in
  non local Contribution for L=           0  read in
    real space projection operators read in
  non local Contribution for L=           0  read in
    real space projection operators read in
  non local Contribution for L=           1  read in
    real space projection operators read in
    PAW grid and wavefunctions read in
 
   number of l-projection  operators is LMAX  =           3
   number of lm-projection operators is LMMAX =           5
 
 POTCAR:    PAW_PBE Mn_pv 02Aug2007               
   VRHFIN =Mn: 3p4s3d                                                           
   LEXCH  = PE                                                                  
   EATOM  =  2025.2664 eV,  148.8529 Ry                                         
                                                                                
   TITEL  = PAW_PBE Mn_pv 02Aug2007                                             
   LULTRA =        F    use ultrasoft PP ?                                      
   IUNSCR =        1    unscreen: 0-lin 1-nonlin 2-no                           
   RPACOR =    2.080    partial core radius                                     
   POMASS =   54.938; ZVAL   =   13.000    mass and valenz                      
   RCORE  =    2.300    outmost cutoff radius                                   
   RWIGS  =    2.500; RWIGS  =    1.323    wigner-seitz radius (au A)           
   ENMAX  =  269.864; ENMIN  =  202.398 eV                                      
   ICORE  =        3    local potential                                         
   LCOR   =        T    correct aug charges                                     
   LPAW   =        T    paw PP                                                  
   EAUG   =  569.085                                                            
   DEXC   =    0.000                                                            
   RMAX   =    2.343    core radius for proj-oper                               
   RAUG   =    1.300    factor for augmentation sphere                          
   RDEP   =    2.338    radius for radial grids                                 
   RDEPT  =    1.798    core radius for aug-charge                              
                                                                                
   Atomic configuration                                                         
    8 entries                                                                   
     n  l   j            E        occ.                                          
     1  0  0.50     -6424.8287   2.0000                                         
     2  0  0.50      -739.1154   2.0000                                         
     2  1  1.50      -625.3949   6.0000                                         
     3  0  0.50       -81.6100   2.0000                                         
     3  1  1.50       -50.4667   6.0000                                         
     3  2  2.50        -3.3745   6.0000                                         
     4  0  0.50        -4.1331   1.0000                                         
     4  3  2.50        -1.3606   0.0000                                         
   Description                                                                  
     l       E           TYP  RCUT    TYP  RCUT                                 
     1    -50.4666628     23  2.000                                             
     1     -1.3605826     23  2.000                                             
     2     -3.3744729     23  2.300                                             
     2     -4.7350555     23  2.300                                             
     0     -4.1331431     23  2.300                                             
     0      7.6656591     23  2.300                                             
     3      9.5240782     23  2.300                                             
  local pseudopotential read in
  partial core-charges read in
  partial kinetic energy density read in
  atomic valenz-charges read in
  non local Contribution for L=           1  read in
    real space projection operators read in
  non local Contribution for L=           1  read in
    real space projection operators read in
  non local Contribution for L=           2  read in
    real space projection operators read in
  non local Contribution for L=           2  read in
    real space projection operators read in
  non local Contribution for L=           0  read in
    real space projection operators read in
  non local Contribution for L=           0  read in
    real space projection operators read in
    PAW grid and wavefunctions read in
 
   number of l-projection  operators is LMAX  =           6
   number of lm-projection operators is LMMAX =          18
 
 POTCAR:    PAW_PBE O 08Apr2002                   
   VRHFIN =O: s2p4                                                              
   LEXCH  = PE                                                                  
   EATOM  =   432.3788 eV,   31.7789 Ry                                         
                                                                                
   TITEL  = PAW_PBE O 08Apr2002                                                 
   LULTRA =        F    use ultrasoft PP ?                                      
   IUNSCR =        1    unscreen: 0-lin 1-nonlin 2-no                           
   RPACOR =    1.200    partial core radius                                     
   POMASS =   16.000; ZVAL   =    6.000    mass and valenz                      
   RCORE  =    1.520    outmost cutoff radius                                   
   RWIGS  =    1.550; RWIGS  =    0.820    wigner-seitz radius (au A)           
   ENMAX  =  400.000; ENMIN  =  300.000 eV                                      
   ICORE  =        2    local potential                                         
   LCOR   =        T    correct aug charges                                     
   LPAW   =        T    paw PP                                                  
   EAUG   =  605.392                                                            
   DEXC   =    0.000                                                            
   RMAX   =    1.553    core radius for proj-oper                               
   RAUG   =    1.300    factor for augmentation sphere                          
   RDEP   =    1.550    radius for radial grids                                 
   RDEPT  =    1.329    core radius for aug-charge                              
                                                                                
   Atomic configuration                                                         
    4 entries                                                                   
     n  l   j            E        occ.                                          
     1  0  0.50      -514.6923   2.0000                                         
     2  0  0.50       -23.9615   2.0000                                         
     2  1  0.50        -9.0305   4.0000                                         
     3  2  1.50        -9.5241   0.0000                                         
   Description                                                                  
     l       E           TYP  RCUT    TYP  RCUT                                 
     0    -23.9615318     23  1.200                                             
     0     -9.5240782     23  1.200                                             
     1     -9.0304911     23  1.520                                             
     1      8.1634956     23  1.520                                             
     2     -9.5240782      7  1.500                                             
  local pseudopotential read in
  partial core-charges read in
  partial kinetic energy density read in
  kinetic energy density of atom read in
  atomic valenz-charges read in
  non local Contribution for L=           0  read in
    real space projection operators read in
  non local Contribution for L=           0  read in
    real space projection operators read in
  non local Contribution for L=           1  read in
    real space projection operators read in
  non local Contribution for L=           1  read in
    real space projection operators read in
    PAW grid and wavefunctions read in
 
   number of l-projection  operators is LMAX  =           4
   number of lm-projection operators is LMMAX =           8
 
 Optimization of the real space projectors (new method)

 maximal supplied QI-value         = 22.11
 optimisation between [QCUT,QGAM] = [ 11.28, 22.77] = [ 35.61,145.23] Ry 
 Optimized for a Real-space Cutoff    1.10 Angstroem

   l    n(q)    QCUT    max X(q) W(low)/X(q) W(high)/X(q)  e(spline) 
   0      7    11.276    10.506    0.54E-04    0.58E-04    0.16E-07
   0      7    11.276     8.367    0.11E-03    0.14E-03    0.35E-07
   1      7    11.276     8.983    0.23E-03    0.43E-03    0.86E-07
 Optimization of the real space projectors (new method)

 maximal supplied QI-value         = 16.25
 optimisation between [QCUT,QGAM] = [ 11.38, 22.75] = [ 36.24,144.96] Ry 
 Optimized for a Real-space Cutoff    1.47 Angstroem

   l    n(q)    QCUT    max X(q) W(low)/X(q) W(high)/X(q)  e(spline) 
   1     10    11.376     3.658    0.62E-04    0.11E-03    0.11E-06
   1     10    11.376     5.612    0.12E-03    0.20E-03    0.19E-06
   2      9    11.376    55.373    0.10E-03    0.85E-04    0.19E-06
   2      9    11.376    50.863    0.11E-03    0.88E-04    0.19E-06
   0     10    11.376    79.536    0.52E-04    0.21E-04    0.79E-07
   0     10    11.376    38.668    0.45E-04    0.19E-04    0.74E-07
 Optimization of the real space projectors (new method)

 maximal supplied QI-value         = 24.76
 optimisation between [QCUT,QGAM] = [ 11.39, 22.77] = [ 36.31,145.25] Ry 
 Optimized for a Real-space Cutoff    1.10 Angstroem

   l    n(q)    QCUT    max X(q) W(low)/X(q) W(high)/X(q)  e(spline) 
   0      7    11.387    20.381    0.22E-03    0.48E-03    0.18E-06
   0      7    11.387    15.268    0.22E-03    0.52E-03    0.19E-06
   1      7    11.387     5.964    0.22E-03    0.73E-03    0.24E-06
   1      7    11.387     5.382    0.19E-03    0.60E-03    0.21E-06
  PAW_PBE Li_sv 10Sep2004               :
 energy of atom  1       EATOM= -202.7858
 kinetic energy error for atom=    0.0143 (will be added to EATOM!!)
  PAW_PBE Mn_pv 02Aug2007               :
 energy of atom  2       EATOM=-2025.2664
 kinetic energy error for atom=    0.0062 (will be added to EATOM!!)
  PAW_PBE O 08Apr2002                   :
 energy of atom  3       EATOM= -432.3788
 kinetic energy error for atom=    0.0224 (will be added to EATOM!!)
 
 
 POSCAR: Li8 Mn16 O48                            
  positions in direct lattice
  No initial velocities read in
 exchange correlation table for  LEXCH =        8
   RHO(1)=    0.500       N(1)  =     2000
   RHO(2)=  100.500       N(2)  =     4000
 


--------------------------------------------------------------------------------------------------------


 ion  position               nearest neighbor table
   1  0.999  1.000  1.000-  31 2.05  58 2.05  54 2.06  33 2.08  68 2.09  41 2.09
   2  0.998  0.996  0.499-  57 2.05  32 2.05  53 2.07  67 2.07  34 2.07  42 2.08
   3  0.004  0.500  1.000-  60 2.03  66 2.05  43 2.06  29 2.07  35 2.10  56 2.11
   4  0.996  0.500  0.500-  44 2.03  30 2.05  59 2.06  65 2.07  55 2.10  36 2.11
   5  0.499  0.996  0.001-  45 2.05  72 2.05  37 2.07  27 2.07  50 2.07  62 2.08
   6  0.501  0.000  0.500-  71 2.05  46 2.05  38 2.06  49 2.08  28 2.09  61 2.09
   7  0.511  0.510  0.993-  64 1.97  39 2.05  52 2.06  47 2.07  70 2.08  25 2.10
   8  0.499  0.510  0.507-  48 1.97  51 2.05  40 2.06  63 2.07  26 2.08  69 2.10
   9  0.166  0.338  0.269-  65 1.85  51 1.88  35 1.88  57 1.90  41 1.93  25 2.20  19 2.85  21 2.90
                            17 3.02
  10  0.168  0.332  0.749-  58 1.89  66 1.90  42 1.91  36 1.91  52 1.91  26 1.92  18 2.88  22 2.89
                            20 2.89
  11  0.162  0.825  0.250-  59 1.87  43 1.87  67 1.89  27 1.89  33 1.93  49 1.93  17 2.79  23 2.85
                            19 2.85
  12  0.165  0.830  0.750-  68 1.89  28 1.89  44 1.90  60 1.90  34 1.91  50 1.91  24 2.88  20 2.88
                            18 2.89
  13  0.672  0.338  0.231-  29 1.85  39 1.88  55 1.88  45 1.90  61 1.93  69 2.20  23 2.85  21 2.90
                            17 3.02
  14  0.665  0.332  0.751-  46 1.89  30 1.90  56 1.91  62 1.91  40 1.91  70 1.92  18 2.88  22 2.89
                            24 2.89
  15  0.667  0.834  0.250-  47 1.89  63 1.90  37 1.90  53 1.90  31 1.90  71 1.90  21 2.86  23 2.88
                            19 2.88
  16  0.668  0.835  0.750-  48 1.89  64 1.89  54 1.90  38 1.90  72 1.91  32 1.91  22 2.88  20 2.89
                            24 2.89
  17  0.324  0.147  0.250-  49 1.83  33 1.83  45 1.91  57 1.91  25 1.96  69 1.96  11 2.79  13 3.02
                             9 3.02
  18  0.332  0.163  0.750-  46 1.89  58 1.89  70 1.90  26 1.90  50 1.91  34 1.91  14 2.88  10 2.88
                            12 2.89
  19  0.334  0.667  0.255-  71 1.89  27 1.90  59 1.90  47 1.90  35 1.90  51 1.90   9 2.85  11 2.85
                            15 2.88
  20  0.334  0.666  0.754-  48 1.89  28 1.90  72 1.90  60 1.90  36 1.90  52 1.92  12 2.88  16 2.89
                            10 2.89
  21  0.833  0.165  0.250-  53 1.89  37 1.89  29 1.91  65 1.92  41 1.92  61 1.92  15 2.86   9 2.90
                            13 2.90
  22  0.834  0.168  0.750-  54 1.90  38 1.90  66 1.90  30 1.90  62 1.90  42 1.91  16 2.88  10 2.89
                            14 2.89
  23  0.833  0.667  0.245-  31 1.89  67 1.90  43 1.90  63 1.90  55 1.90  39 1.90  13 2.85  11 2.85
                            15 2.88
  24  0.832  0.666  0.746-  64 1.89  68 1.90  32 1.90  44 1.90  56 1.90  40 1.92  12 2.88  16 2.89
                            14 2.89
  25  0.383  0.357  0.181-  69 1.46  17 1.96   7 2.10   9 2.20
  26  0.325  0.321  0.626-  18 1.90  10 1.92   8 2.08
  27  0.319  0.817  0.127-  11 1.89  19 1.90   5 2.07
  28  0.322  0.820  0.630-  12 1.89  20 1.90   6 2.09
  29  0.821  0.318  0.120-  13 1.85  21 1.91   3 2.07
  30  0.821  0.323  0.629-  14 1.90  22 1.90   4 2.05
  31  0.822  0.823  0.126-  23 1.89  15 1.90   1 2.05
  32  0.820  0.821  0.623-  24 1.90  16 1.91   2 2.05
  33  0.177  0.994  0.122-  17 1.83  11 1.93   1 2.08
  34  0.177  0.997  0.626-  12 1.91  18 1.91   2 2.07
  35  0.182  0.497  0.133-   9 1.88  19 1.90   3 2.10
  36  0.180  0.501  0.628-  20 1.90  10 1.91   4 2.11
  37  0.680  0.001  0.126-  21 1.89  15 1.90   5 2.07
  38  0.679  0.002  0.627-  22 1.90  16 1.90   6 2.06
  39  0.691  0.505  0.108-  13 1.88  23 1.90   7 2.05
  40  0.674  0.497  0.625-  14 1.91  24 1.92   8 2.06
  41  0.007  0.182  0.133-  21 1.92   9 1.93   1 2.09
  42  0.999  0.177  0.626-  22 1.91  10 1.91   2 2.08
  43  0.999  0.676  0.125-  11 1.87  23 1.90   3 2.06
  44  0.999  0.677  0.625-  24 1.90  12 1.90   4 2.03
  45  0.498  0.171  0.130-  13 1.90  17 1.91   5 2.05
  46  0.500  0.172  0.636-  14 1.89  18 1.89   6 2.05
  47  0.500  0.678  0.130-  15 1.89  19 1.90   7 2.07
  48  0.501  0.681  0.630-  16 1.89  20 1.89   8 1.97
  49  0.316  0.994  0.378-  17 1.83  11 1.93   6 2.08
  50  0.319  0.997  0.874-  12 1.91  18 1.91   5 2.07
  51  0.314  0.505  0.392-   9 1.88  19 1.90   8 2.05
  52  0.323  0.496  0.875-  10 1.91  20 1.92   7 2.06
  53  0.820  0.001  0.374-  21 1.89  15 1.90   2 2.07
  54  0.822  0.002  0.873-  22 1.90  16 1.90   1 2.06
  55  0.815  0.497  0.367-  13 1.88  23 1.90   4 2.10
  56  0.821  0.501  0.872-  24 1.90  14 1.91   3 2.11
  57  0.173  0.171  0.370-   9 1.90  17 1.91   2 2.05
  58  0.172  0.172  0.864-  10 1.89  18 1.89   1 2.05
  59  0.177  0.676  0.375-  11 1.87  19 1.90   4 2.06
  60  0.178  0.677  0.875-  20 1.90  12 1.90   3 2.03
  61  0.675  0.182  0.367-  21 1.92  13 1.93   6 2.09
  62  0.678  0.177  0.874-  22 1.90  14 1.91   5 2.08
  63  0.678  0.678  0.370-  15 1.90  23 1.90   8 2.07
  64  0.680  0.681  0.870-  16 1.89  24 1.89   7 1.97
  65  0.997  0.318  0.380-   9 1.85  21 1.92   4 2.07
  66  0.002  0.323  0.871-  10 1.90  22 1.90   3 2.05
  67  0.998  0.817  0.372-  11 1.89  23 1.90   2 2.07
  68  0.998  0.820  0.870-  12 1.89  24 1.90   1 2.09
  69  0.474  0.357  0.319-  25 1.46  17 1.96   8 2.10  13 2.20
  70  0.496  0.321  0.874-  18 1.90  14 1.92   7 2.08
  71  0.501  0.824  0.374-  19 1.89  15 1.90   6 2.05
  72  0.501  0.821  0.876-  20 1.90  16 1.91   5 2.05
 
  LATTYP: Found a hexagonal cell.
 ALAT       =     9.9963163228
 C/A-ratio  =     0.8228598387
  
  Lattice vectors:
  
 A1 = (   9.9963160000,   0.0000090000,   0.0017840000)
 A2 = (  -4.9981650000,   8.6570590000,  -0.0022840000)
 A3 = (  -0.0014680000,   0.0013220000,   8.2255670000)


Analysis of symmetry for initial positions (statically):
=====================================================================
 Subroutine PRICEL returns:
 Original cell was already a primitive cell.
 

 Routine SETGRP: Setting up the symmetry group for a 
 hexagonal supercell.


 Subroutine GETGRP returns: Found  1 space group operations
 (whereof  1 operations were pure point group operations)
 out of a pool of 24 trial point group operations.


The static configuration has the point symmetry C_1 .


Analysis of symmetry for dynamics (positions and initial velocities):
=====================================================================
 Subroutine PRICEL returns:
 Original cell was already a primitive cell.
 

 Routine SETGRP: Setting up the symmetry group for a 
 hexagonal supercell.


 Subroutine GETGRP returns: Found  1 space group operations
 (whereof  1 operations were pure point group operations)
 out of a pool of 24 trial point group operations.


The dynamic configuration has the point symmetry C_1 .


Analysis of structural, dynamic, and magnetic symmetry:
=====================================================================
 Subroutine PRICEL returns:
 Original cell was already a primitive cell.
 

 Routine SETGRP: Setting up the symmetry group for a 
 hexagonal supercell.


 Subroutine GETGRP returns: Found  1 space group operations
 (whereof  1 operations were pure point group operations)
 out of a pool of 24 trial point group operations.


The magnetic configuration has the point symmetry C_1 .


 Subroutine INISYM returns: Found  1 space group operations
 (whereof  1 operations are pure point group operations),
 and found     1 'primitive' translations

 
 
 KPOINTS: pymatgen 4.7.6+ generated KPOINTS with g

Automatic generation of k-mesh.
Space group operators:
 irot       det(A)        alpha          n_x          n_y          n_z        tau_x        tau_y        tau_z
    1     1.000000     0.000001     1.000000     0.000000     0.000000     0.000000     0.000000     0.000000
 
 Subroutine IBZKPT returns following result:
 ===========================================
 
 Found     19 irreducible k-points:
 
 Following reciprocal coordinates:
            Coordinates               Weight
  0.000000  0.000000  0.000000      1.000000
  0.333333 -0.000000 -0.000000      2.000000
 -0.000000  0.333333  0.000000      2.000000
  0.333333  0.333333  0.000000      2.000000
 -0.333333  0.333333  0.000000      2.000000
 -0.000000 -0.000000  0.250000      2.000000
  0.333333 -0.000000  0.250000      2.000000
 -0.333333  0.000000  0.250000      2.000000
 -0.000000  0.333333  0.250000      2.000000
  0.333333  0.333333  0.250000      2.000000
 -0.333333  0.333333  0.250000      2.000000
 -0.000000 -0.333333  0.250000      2.000000
  0.333333 -0.333333  0.250000      2.000000
 -0.333333 -0.333333  0.250000      2.000000
 -0.000000 -0.000000  0.500000      1.000000
  0.333333 -0.000000  0.500000      2.000000
 -0.000000  0.333333  0.500000      2.000000
  0.333333  0.333333  0.500000      2.000000
 -0.333333  0.333333  0.500000      2.000000
 
 Following cartesian coordinates:
            Coordinates               Weight
  0.000000  0.000000  0.000000      1.000000
  0.033346  0.019252  0.000003      2.000000
 -0.000000  0.038504 -0.000006      2.000000
  0.033346  0.057756 -0.000003      2.000000
 -0.033346  0.019252 -0.000009      2.000000
 -0.000005  0.000005  0.030393      2.000000
  0.033340  0.019257  0.030396      2.000000
 -0.033351 -0.019247  0.030390      2.000000
 -0.000005  0.038509  0.030387      2.000000
  0.033340  0.057761  0.030390      2.000000
 -0.033351  0.019257  0.030384      2.000000
 -0.000005 -0.038499  0.030399      2.000000
  0.033340 -0.019247  0.030402      2.000000
 -0.033351 -0.057751  0.030396      2.000000
 -0.000011  0.000010  0.060786      1.000000
  0.033335  0.019262  0.060789      2.000000
 -0.000011  0.038514  0.060780      2.000000
  0.033335  0.057766  0.060783      2.000000
 -0.033356  0.019262  0.060777      2.000000
 
 TETIRR: Found    106 inequivalent tetrahedra from      216


--------------------------------------------------------------------------------------------------------




 Dimension of arrays:
   k-points           NKPTS =     19   k-points in BZ     NKDIM =     19   number of bands    NBANDS=    336
   number of dos      NEDOS =    301   number of ions     NIONS =     72
   non local maximal  LDIM  =      6   non local SUM 2l+1 LMDIM =     18
   total plane-waves  NPLWV = 384000
   max r-space proj   IRMAX =   7292   max aug-charges    IRDMAX=  16566
   dimension x,y,z NGX =    80 NGY =   80 NGZ =   60
   dimension x,y,z NGXF=   160 NGYF=  160 NGZF=  120
   support grid    NGXF=   160 NGYF=  160 NGZF=  120
   ions per type =               8  16  48
   NGX,Y,Z   is equivalent  to a cutoff of  13.30, 13.30, 12.13 a.u.
   NGXF,Y,Z  is equivalent  to a cutoff of  26.61, 26.61, 24.25 a.u.

 SYSTEM =  unknown system                          
 POSCAR =  Li8 Mn16 O48                            

 Startparameter for this run:
   NWRITE =      2    write-flag & timer
   PREC   = accura    normal or accurate (medium, high low for compatibility)
   ISTART =      0    job   : 0-new  1-cont  2-samecut
   ICHARG =      2    charge: 1-file 2-atom 10-const
   ISPIN  =      2    spin polarized calculation?
   LNONCOLLINEAR =      F non collinear calculations
   LSORBIT =      F    spin-orbit coupling
   INIWAV =      1    electr: 0-lowe 1-rand  2-diag
   LASPH  =      T    aspherical Exc in radial PAW
   METAGGA=      F    non-selfconsistent MetaGGA calc.

 Electronic Relaxation 1
   ENCUT  =  500.0 eV  36.75 Ry    6.06 a.u.  18.23 18.23 15.00*2*pi/ulx,y,z
   ENINI  =  500.0     initial cutoff
   ENAUG  =  628.9 eV  augmentation charge cutoff
   NELM   =    100;   NELMIN=  4; NELMDL= -5     # of ELM steps 
   EDIFF  = 0.1E-05   stopping-criterion for ELM
   LREAL  =      T    real-space projection
   NLSPLINE    = F    spline interpolate recip. space projectors
   LCOMPAT=      F    compatible to vasp.4.4
   GGA_COMPAT  = T    GGA compatible to vasp.4.4-vasp.4.6
   LMAXPAW     = -100 max onsite density
   LMAXMIX     =    4 max onsite mixed and CHGCAR
   VOSKOWN=      0    Vosko Wilk Nusair interpolation
   ROPT   =   -0.00025  -0.00025  -0.00025
 Ionic relaxation
   EDIFFG = 0.1E-04   stopping-criterion for IOM
   NSW    =      0    number of steps for IOM
   NBLOCK =      1;   KBLOCK =      1    inner block; outer block 
   IBRION =     -1    ionic relax: 0-MD 1-quasi-New 2-CG
   NFREE  =      0    steps in history (QN), initial steepest desc. (CG)
   ISIF   =      2    stress and relaxation
   IWAVPR =     10    prediction:  0-non 1-charg 2-wave 3-comb
   ISYM   =      2    0-nonsym 1-usesym 2-fastsym
   LCORR  =      T    Harris-Foulkes like correction to forces

   POTIM  = 0.5000    time-step for ionic-motion
   TEIN   =    0.0    initial temperature
   TEBEG  =    0.0;   TEEND  =   0.0 temperature during run
   SMASS  =  -3.00    Nose mass-parameter (am)
   estimated Nose-frequenzy (Omega)   =  0.10E-29 period in steps =****** mass=  -0.228E-26a.u.
   SCALEE = 1.0000    scale energy and forces
   NPACO  =    256;   APACO  = 16.0  distance and # of slots for P.C.
   PSTRESS=    0.0 pullay stress

  Mass of Ions in am
   POMASS =   7.01 54.94 16.00
  Ionic Valenz
   ZVAL   =   3.00 13.00  6.00
  Atomic Wigner-Seitz radii
   RWIGS  =  -1.00 -1.00 -1.00
  virtual crystal weights 
   VCA    =   1.00  1.00  1.00
   NELECT =     520.0000    total number of electrons
   NUPDOWN=      -1.0000    fix difference up-down

 DOS related values:
   EMIN   =  10.00;   EMAX   =-10.00  energy-range for DOS
   EFERMI =   0.00
   ISMEAR =    -5;   SIGMA  =   0.20  broadening in eV -4-tet -1-fermi 0-gaus

 Electronic relaxation 2 (details)
   IALGO  =     38    algorithm
   LDIAG  =      T    sub-space diagonalisation (order eigenvalues)
   LSUBROT=      F    optimize rotation matrix (better conditioning)
   TURBO    =      0    0=normal 1=particle mesh
   IRESTART =      0    0=no restart 2=restart with 2 vectors
   NREBOOT  =      0    no. of reboots
   NMIN     =      0    reboot dimension
   EREF     =   0.00    reference energy to select bands
   IMIX   =      4    mixing-type and parameters
     AMIX     =   0.40;   BMIX     =  1.00
     AMIX_MAG =   1.60;   BMIX_MAG =  1.00
     AMIN     =   0.10
     WC   =   100.;   INIMIX=   1;  MIXPRE=   1;  MAXMIX= -45

 Intra band minimization:
   WEIMIN = 0.0000     energy-eigenvalue tresh-hold
   EBREAK =  0.74E-09  absolut break condition
   DEPER  =   0.30     relativ break condition  

   TIME   =   0.40     timestep for ELM

  volume/ion in A,a.u.               =       9.89        66.72
  Fermi-wavevector in a.u.,A,eV,Ry     =   1.474406  2.786224 29.577344  2.173873
  Thomas-Fermi vector in A             =   2.589181
 
 Write flags
   LWAVE        =      F    write WAVECAR
   LDOWNSAMPLE  =      F    k-point downsampling of WAVECAR
   LCHARG       =      T    write CHGCAR
   LVTOT        =      F    write LOCPOT, total local potential
   LVHAR        =      F    write LOCPOT, Hartree potential only
   LELF         =      F    write electronic localiz. function (ELF)
   LORBIT       =     11    0 simple, 1 ext, 2 COOP (PROOUT), +10 PAW based schemes


 Dipole corrections
   LMONO  =      F    monopole corrections only (constant potential shift)
   LDIPOL =      F    correct potential (dipole corrections)
   IDIPOL =      0    1-x, 2-y, 3-z, 4-all directions 
   EPSILON=  1.0000000 bulk dielectric constant

 LDA+U is selected, type is set to LDAUTYPE =  2
   angular momentum for each species LDAUL =     0    2    0
   U (eV)           for each species LDAUU =   0.0  3.9  0.0
   J (eV)           for each species LDAUJ =   0.0  0.0  0.0
 Exchange correlation treatment:
   GGA     =    --    GGA type
   LEXCH   =     8    internal setting for exchange type
   VOSKOWN=      0    Vosko Wilk Nusair interpolation
   LHFCALC =     F    Hartree Fock is set to
   LHFONE  =     F    Hartree Fock one center treatment
   AEXX    =    0.0000 exact exchange contribution

 Linear response parameters
   LEPSILON=     F    determine dielectric tensor
   LRPA    =     F    only Hartree local field effects (RPA)
   LNABLA  =     F    use nabla operator in PAW spheres
   LVEL    =     F    velocity operator in full k-point grid
   LINTERFAST=   F  fast interpolation
   KINTER  =     0    interpolate to denser k-point grid
   CSHIFT  =0.1000    complex shift for real part using Kramers Kronig
   OMEGAMAX=  -1.0    maximum frequency
   DEG_THRESHOLD= 0.2000000E-02 threshold for treating states as degnerate
   RTIME   =   -0.100 relaxation time in fs
  (WPLASMAI=    0.000 imaginary part of plasma frequency in eV, 0.658/RTIME)
   DFIELD  = 0.0000000 0.0000000 0.0000000 field for delta impulse in time
 
 Orbital magnetization related:
   ORBITALMAG=     F  switch on orbital magnetization
   LCHIMAG   =     F  perturbation theory with respect to B field
   DQ        =  0.001000  dq finite difference perturbation B field
   LLRAUG    =     F  two centre corrections for induced B field



--------------------------------------------------------------------------------------------------------


 Static calculation
 charge density and potential will be updated during run
 spin polarized calculation
 Variant of blocked Davidson
 Davidson routine will perform the subspace rotation
 perform sub-space diagonalisation
    after iterative eigenvector-optimisation
 modified Broyden-mixing scheme, WC =      100.0
 initial mixing is a Kerker type mixing with AMIX =  0.4000 and BMIX =      1.0000
 Hartree-type preconditioning will be used
 using additional bands           76
 real space projection scheme for non local part
 use partial core corrections
 calculate Harris-corrections to forces 
   (improved forces if not selfconsistent)
 use gradient corrections 
 use of overlap-Matrix (Vanderbilt PP)
 Fermi weights with tetrahedron method with Bloechl corrections


--------------------------------------------------------------------------------------------------------


  energy-cutoff  :      500.00
  volume of cell :      711.83
      direct lattice vectors                 reciprocal lattice vectors
     9.996316000  0.000009000  0.001784000     0.100036800  0.057756387  0.000008571
    -4.998165000  8.657059000 -0.002284000    -0.000000101  0.115512607 -0.000018565
    -0.001468000  0.001322000  8.225567000    -0.000021696  0.000019548  0.121572159

  length of vectors
     9.996316159  9.996315777  8.225567237     0.115512604  0.115512609  0.121572163


 
 k-points in units of 2pi/SCALE and weight: pymatgen 4.7.6+ generated KPOINTS with g
   0.00000000  0.00000000  0.00000000       0.028
   0.03334560  0.01925213  0.00000286       0.056
  -0.00000003  0.03850420 -0.00000619       0.056
   0.03334557  0.05775633 -0.00000333       0.056
  -0.03334563  0.01925207 -0.00000905       0.056
  -0.00000542  0.00000489  0.03039304       0.056
   0.03334018  0.01925702  0.03039590       0.056
  -0.03335102 -0.01924724  0.03039018       0.056
  -0.00000546  0.03850909  0.03038685       0.056
   0.03334014  0.05776122  0.03038971       0.056
  -0.03335106  0.01925696  0.03038399       0.056
  -0.00000539 -0.03849932  0.03039923       0.056
   0.03334021 -0.01924719  0.03040209       0.056
  -0.03335099 -0.05775144  0.03039637       0.056
  -0.00001085  0.00000977  0.06078608       0.028
   0.03333475  0.01926190  0.06078894       0.056
  -0.00001088  0.03851398  0.06077989       0.056
   0.03333472  0.05776611  0.06078275       0.056
  -0.03335648  0.01926185  0.06077703       0.056
 
 k-points in reciprocal lattice and weights: pymatgen 4.7.6+ generated KPOINTS with g
   0.00000000  0.00000000  0.00000000       0.028
   0.33333333 -0.00000000 -0.00000000       0.056
  -0.00000000  0.33333333  0.00000000       0.056
   0.33333333  0.33333333  0.00000000       0.056
  -0.33333333  0.33333333  0.00000000       0.056
  -0.00000000 -0.00000000  0.25000000       0.056
   0.33333333 -0.00000000  0.25000000       0.056
  -0.33333333  0.00000000  0.25000000       0.056
  -0.00000000  0.33333333  0.25000000       0.056
   0.33333333  0.33333333  0.25000000       0.056
  -0.33333333  0.33333333  0.25000000       0.056
  -0.00000000 -0.33333333  0.25000000       0.056
   0.33333333 -0.33333333  0.25000000       0.056
  -0.33333333 -0.33333333  0.25000000       0.056
  -0.00000000 -0.00000000  0.50000000       0.028
   0.33333333 -0.00000000  0.50000000       0.056
  -0.00000000  0.33333333  0.50000000       0.056
   0.33333333  0.33333333  0.50000000       0.056
  -0.33333333  0.33333333  0.50000000       0.056
 
 position of ions in fractional coordinates (direct lattice) 
   0.99902600  0.99998400  0.99963700
   0.99781200  0.99641300  0.49865200
   0.00396600  0.49959300  0.99964800
   0.99561000  0.49958800  0.50033800
   0.49859900  0.99641900  0.00135000
   0.50096100  0.00000200  0.50033000
   0.51105700  0.51044800  0.99328600
   0.49937700  0.51045600  0.50669800
   0.16641900  0.33819700  0.26869300
   0.16756400  0.33221500  0.74863800
   0.16242600  0.82491500  0.24998100
   0.16495300  0.82985000  0.74997300
   0.67176000  0.33820800  0.23133100
   0.66465200  0.33223500  0.75138900
   0.66711400  0.83422400  0.25001100
   0.66769900  0.83540500  0.75001400
   0.32366200  0.14732600  0.25001000
   0.33165300  0.16328400  0.74998600
   0.33436200  0.66735300  0.25477600
   0.33436400  0.66632200  0.75359900
   0.83254200  0.16507400  0.25000200
   0.83376500  0.16752300  0.75000900
   0.83297600  0.66735400  0.24523900
   0.83202500  0.66637700  0.74635900
   0.38319500  0.35727300  0.18085800
   0.32456400  0.32054600  0.62623500
   0.31874200  0.81701300  0.12748000
   0.32180200  0.82017700  0.63031700
   0.82141400  0.31827500  0.12029000
   0.82076100  0.32269100  0.62894100
   0.82236100  0.82348800  0.12608100
   0.81957000  0.82061300  0.62348900
   0.17748200  0.99374500  0.12232600
   0.17707500  0.99653700  0.62585400
   0.18206000  0.49720100  0.13327800
   0.17951800  0.50097200  0.62848500
   0.68033700  0.00056700  0.12550900
   0.67916600  0.00157300  0.62656000
   0.69079100  0.50488800  0.10805100
   0.67363400  0.49652500  0.62463400
   0.00716300  0.18183600  0.13348000
   0.99945600  0.17736400  0.62608600
   0.99939800  0.67604300  0.12488100
   0.99853200  0.67675800  0.62483900
   0.49766100  0.17110500  0.12994000
   0.49981600  0.17158100  0.63560700
   0.49979100  0.67821600  0.13040100
   0.50064500  0.68056600  0.62969700
   0.31620200  0.99374400  0.37765700
   0.31950000  0.99654400  0.87410000
   0.31414500  0.50486300  0.39200500
   0.32286400  0.49649300  0.87534900
   0.82025300  0.00058700  0.37448400
   0.82234500  0.00158100  0.87346100
   0.81518800  0.49720900  0.36670900
   0.82146200  0.50103200  0.87150300
   0.17338100  0.17107500  0.37005900
   0.17174400  0.17153600  0.86441400
   0.17663500  0.67611500  0.37514400
   0.17823900  0.67672500  0.87509700
   0.67467600  0.18184200  0.36652400
   0.67792500  0.17735100  0.87394800
   0.67842700  0.67815900  0.36962600
   0.68001600  0.68063200  0.87035700
   0.99687700  0.31829000  0.37974800
   0.00192100  0.32269000  0.87106600
   0.99823200  0.81710700  0.37241900
   0.99846000  0.82020700  0.86962800
   0.47414800  0.35727500  0.31921600
   0.49594800  0.32054700  0.87375600
   0.50112100  0.82350000  0.37395800
   0.50101400  0.82057800  0.87649900
 
 position of ions in cartesian coordinates  (Angst):
   4.98702709  8.65825100  8.22207942
   4.99347546  8.62667433  4.10119972
  -2.45887034  4.32632765  8.22153761
   7.45467442  4.32563320  4.11619885
   0.00388461  8.62606434  0.00971820
   5.00701998  0.00068326  4.11639165
   2.55592579  4.42029618  8.17008641
   2.43984315  4.41972206  4.16760335
  -0.02718194  2.92814809  2.20967672
   0.01345831  2.87699606  6.15751218
  -2.49976663  7.14166976  2.05464113
  -2.49990587  7.18505336  6.16735206
   5.02436625  2.92819848  1.90325459
   4.98240303  2.87717731  6.18102748
   2.49872614  7.22226291  2.05576699
   2.49793714  7.23314790  6.16857352
   2.49870096  1.27574330  2.05671493
   2.49808684  1.41455369  6.16927882
   0.00647379  5.77765412  2.09474933
   0.01091462  5.76938813  6.19785369
   7.49691882  1.42939335  2.05751643
   7.49616980  1.45125551  6.17035409
   4.99078590  5.77765465  2.01719162
   4.98542697  5.76985918  6.13918829
   2.04456341  3.09317598  1.48752720
   1.64138320  2.77581644  5.15098485
  -0.89750717  7.07310114  1.04729786
  -0.88347080  7.10115685  5.18341553
   6.62014636  2.75549187  0.99019192
   6.59080017  2.79439387  5.17412355
   4.10446644  7.12915828  1.03667396
   4.09020625  7.10492679  5.12813838
  -3.19291490  8.60307241  1.00424762
  -3.21167745  8.62790858  5.14604382
  -0.66535900  4.30447622  1.09547631
  -0.71034468  4.33777663  5.16882152
   6.79784543  0.00508060  1.03359511
   6.78037605  0.01445198  5.15501930
   4.38169298  4.37099426  0.88885995
   4.25122749  4.29927805  5.13803652
  -0.83743867  1.57434151  1.09754615
   9.10346437  1.53628729  5.15129027
   6.61114043  5.85271822  1.02745588
   6.59817600  5.85956896  5.13989072
   4.11937484  1.48144234  1.06932720
   4.13779546  1.48623161  5.22872774
   1.60604187  5.87153281  1.07196474
   1.60210007  5.89253698  5.17895360
  -1.80659577  8.60340255  3.10473735
  -1.78835156  8.62829864  7.18826200
   0.61632865  4.37114984  3.22387072
   0.74461162  4.29932931  7.19968385
   8.19602452  0.00558414  3.08180522
   8.21123614  0.01484893  7.18617543
   5.66320590  4.30485977  3.01670812
   5.70607376  4.33862311  7.16892745
   0.87756694  1.48149715  3.04386367
   0.85817310  1.48614157  7.11020988
  -1.61418576  5.85366498  3.08454298
  -1.60193448  5.85960673  7.19694134
   5.83486012  1.57470754  3.01565601
   5.88904001  1.53649953  7.18952218
   3.39167749  5.87135723  3.04004483
   3.39446610  5.89342811  7.15883840
   8.37367410  2.75596631  3.12469407
  -1.59493367  2.79469794  7.16427815
   5.89406019  7.07424483  3.06327201
   5.88011514  7.10173903  7.15309128
   2.95354523  3.09337703  2.62576246
   3.35422346  2.77615386  7.18729116
   0.89282602  7.12958697  3.07502971
   0.90562332  7.10495540  7.20872086
 


--------------------------------------------------------------------------------------------------------


 k-point  1 :   0.0000 0.0000 0.0000  plane waves:   18077
 k-point  2 :   0.3333-0.0000-0.0000  plane waves:   18058
 k-point  3 :  -0.0000 0.3333 0.0000  plane waves:   18058
 k-point  4 :   0.3333 0.3333 0.0000  plane waves:   18036
 k-point  5 :  -0.3333 0.3333 0.0000  plane waves:   18058
 k-point  6 :  -0.0000-0.0000 0.2500  plane waves:   18078
 k-point  7 :   0.3333-0.0000 0.2500  plane waves:   18072
 k-point  8 :  -0.3333 0.0000 0.2500  plane waves:   18072
 k-point  9 :  -0.0000 0.3333 0.2500  plane waves:   18072
 k-point 10 :   0.3333 0.3333 0.2500  plane waves:   18054
 k-point 11 :  -0.3333 0.3333 0.2500  plane waves:   18072
 k-point 12 :  -0.0000-0.3333 0.2500  plane waves:   18072
 k-point 13 :   0.3333-0.3333 0.2500  plane waves:   18072
 k-point 14 :  -0.3333-0.3333 0.2500  plane waves:   18054
 k-point 15 :  -0.0000-0.0000 0.5000  plane waves:   18054
 k-point 16 :   0.3333-0.0000 0.5000  plane waves:   18072
 k-point 17 :  -0.0000 0.3333 0.5000  plane waves:   18072
 k-point 18 :   0.3333 0.3333 0.5000  plane waves:   18150
 k-point 19 :  -0.3333 0.3333 0.5000  plane waves:   18072

 maximum and minimum number of plane-waves per node :     18150    18036

 maximum number of plane-waves:     18150
 maximum index in each direction: 
   IXMAX=   18   IYMAX=   18   IZMAX=   14
   IXMIN=  -18   IYMIN=  -18   IZMIN=  -15


 serial   3D FFT for wavefunctions
 parallel 3D FFT for charge:
    minimum data exchange during FFTs selected (reduces bandwidth)


 total amount of memory used by VASP MPI-rank0   254385. kBytes
=======================================================================

   base      :      30000. kBytes
   nonlr-proj:      37580. kBytes
   fftplans  :       5472. kBytes
   grid      :      41200. kBytes
   one-center:       2239. kBytes
   wavefun   :     137894. kBytes
 
     INWAV:  cpu time    0.0000: real time    0.0002
 Broyden mixing: mesh for mixing (old mesh)
   NGX = 37   NGY = 37   NGZ = 29
  (NGX  =160   NGY  =160   NGZ  =120)
  gives a total of  39701 points

 initial charge density was supplied:
 charge density of overlapping atoms calculated
 number of electron     520.0000000 magnetization      28.5200000
 keeping initial charge density in first step


--------------------------------------------------------------------------------------------------------


 Maximum index for non-local projection operator         7064
 Maximum index for augmentation-charges          670 (set IRDMAX)


--------------------------------------------------------------------------------------------------------


 First call to EWALD:  gamma=   0.199
 Maximum number of real-space cells 3x 3x 3
 Maximum number of reciprocal cells 3x 3x 3

    FEWALD:  cpu time    0.0025: real time    0.0025


--------------------------------------- Iteration      1(   1)  ---------------------------------------


    POTLOK:  cpu time    0.2093: real time    0.2111
    SETDIJ:  cpu time    1.0398: real time    1.0403
atom =   1  type =  1  l = 0
 
 onsite density matrix
 
spin component  1
 
  1.0209
 
spin component  2
 
  1.0189
 
 occupancies and eigenvectors
 
  o =  1.0189  v =  0.0000  1.0000      0.0000  0.0000
  o =  1.0209  v =  1.0000  0.0000      0.0000  0.0000
atom =   2  type =  1  l = 0
 
 onsite density matrix
 
spin component  1
 
  1.0213
 
spin component  2
 
  1.0186
 
 occupancies and eigenvectors
 
  o =  1.0186  v =  0.0000  1.0000      0.0000  0.0000
  o =  1.0213  v =  1.0000  0.0000      0.0000  0.0000
atom =   3  type =  1  l = 0
 
 onsite density matrix
 
spin component  1
 
  1.0209
 
spin component  2
 
  1.0189
 
 occupancies and eigenvectors
 
  o =  1.0189  v =  0.0000  1.0000      0.0000  0.0000
  o =  1.0209  v =  1.0000  0.0000      0.0000  0.0000
atom =   4  type =  1  l = 0
 
 onsite density matrix
 
spin component  1
 
  1.0209
 
spin component  2
 
  1.0189
 
 occupancies and eigenvectors
 
  o =  1.0189  v =  0.0000  1.0000      0.0000  0.0000
  o =  1.0209  v =  1.0000  0.0000      0.0000  0.0000
atom =   5  type =  1  l = 0
 
 onsite density matrix
 
spin component  1
 
  1.0213
 
spin component  2
 
  1.0186
 
 occupancies and eigenvectors
 
  o =  1.0186  v =  0.0000  1.0000      0.0000  0.0000
  o =  1.0213  v =  1.0000  0.0000      0.0000  0.0000
atom =   6  type =  1  l = 0
 
 onsite density matrix
 
spin component  1
 
  1.0209
 
spin component  2
 
  1.0189
 
 occupancies and eigenvectors
 
  o =  1.0189  v =  0.0000  1.0000      0.0000  0.0000
  o =  1.0209  v =  1.0000  0.0000      0.0000  0.0000
atom =   7  type =  1  l = 0
 
 onsite density matrix
 
spin component  1
 
  1.0209
 
spin component  2
 
  1.0189
 
 occupancies and eigenvectors
 
  o =  1.0189  v =  0.0000  1.0000      0.0000  0.0000
  o =  1.0209  v =  1.0000  0.0000      0.0000  0.0000
atom =   8  type =  1  l = 0
 
 onsite density matrix
 
spin component  1
 
  1.0209
 
spin component  2
 
  1.0189
 
 occupancies and eigenvectors
 
  o =  1.0189  v =  0.0000  1.0000      0.0000  0.0000
  o =  1.0209  v =  1.0000  0.0000      0.0000  0.0000
atom =   9  type =  2  l = 2
 
 onsite density matrix
 
spin component  1
 
  0.6530  0.0000  0.0000  0.0000  0.0000
  0.0000  0.6530  0.0000  0.0000  0.0000
  0.0000  0.0000  0.6530  0.0000  0.0000
  0.0000  0.0000  0.0000  0.6530  0.0000
  0.0000  0.0000  0.0000  0.0000  0.6530
 
spin component  2
 
  0.3999  0.0000  0.0000  0.0000  0.0000
  0.0000  0.3999  0.0000  0.0000  0.0000
  0.0000  0.0000  0.3999  0.0000  0.0000
  0.0000  0.0000  0.0000  0.3999  0.0000
  0.0000  0.0000  0.0000  0.0000  0.3999
 
 occupancies and eigenvectors
 
  o =  0.3999  v =  0.0000  0.0000  0.0000  0.0000  0.0000  1.0000  0.0000  0.0000  0.0000  0.0000      0.0000  0.0000  0.0000  0.0000  0.0000  0.0000  0.0000  0.0000  0.0000  0.0000
  o =  0.3999  v =  0.0000  0.0000  0.0000  0.0000  0.0000  0.0000  1.0000  0.0000  0.0000  0.0000      0.0000  0.0000  0.0000  0.0000  0.0000  0.0000  0.0000  0.0000  0.0000  0.0000
  o =  0.3999  v =  0.0000  0.0000  0.0000  0.0000  0.0000  0.0000  0.0000  1.0000  0.0000  0.0000      0.0000  0.0000  0.0000  0.0000  0.0000  0.0000  0.0000  0.0000  0.0000  0.0000
  o =  0.3999  v =  0.0000  0.0000  0.0000  0.0000  0.0000  0.0000  0.0000  0.0000  0.0000 -1.0000      0.0000  0.0000  0.0000  0.0000  0.0000  0.0000  0.0000  0.0000  0.0000  0.0000
  o =  0.3999  v =  0.0000  0.0000  0.0000  0.0000  0.0000  0.0000  0.0000  0.0000 -1.0000  0.0000      0.0000  0.0000  0.0000  0.0000  0.0000  0.0000  0.0000  0.0000  0.0000  0.0000
  o =  0.6530  v =  0.0000  0.0000  0.0000  0.7071  0.7071  0.0000  0.0000  0.0000  0.0000  0.0000      0.0000  0.0000  0.0000  0.0000  0.0000  0.0000  0.0000  0.0000  0.0000  0.0000
  o =  0.6530  v =  0.0000  1.0000  0.0000  0.0000  0.0000  0.0000  0.0000  0.0000  0.0000  0.0000      0.0000  0.0000  0.0000  0.0000  0.0000  0.0000  0.0000  0.0000  0.0000  0.0000
  o =  0.6530  v =  0.0000  0.0000  1.0000  0.0000  0.0000  0.0000  0.0000  0.0000  0.0000  0.0000      0.0000  0.0000  0.0000  0.0000  0.0000  0.0000  0.0000  0.0000  0.0000  0.0000
  o =  0.6530  v =  0.0000  0.0000  0.0000 -0.7071  0.7071  0.0000  0.0000  0.0000  0.0000  0.0000      0.0000  0.0000  0.0000  0.0000  0.0000  0.0000  0.0000  0.0000  0.0000  0.0000
  o =  0.6530  v =  1.0000  0.0000  0.0000  0.0000  0.0000  0.0000  0.0000  0.0000  0.0000  0.0000      0.0000  0.0000  0.0000  0.0000  0.0000  0.0000  0.0000  0.0000  0.0000  0.0000
atom =  10  type =  2  l = 2
 
 onsite density matrix
 
spin component  1
 
  0.6509  0.0000  0.0000  0.0000  0.0000
  0.0000  0.6509  0.0000  0.0000  0.0000
  0.0000  0.0000  0.6509  0.0000  0.0000
  0.0000  0.0000  0.0000  0.6509  0.0000
  0.0000  0.0000  0.0000  0.0000  0.6509
 
spin component  2
 
  0.4019  0.0000  0.0000  0.0000  0.0000
  0.0000  0.4019  0.0000  0.0000  0.0000
  0.0000  0.0000  0.4019  0.0000  0.0000
  0.0000  0.0000  0.0000  0.4019  0.0000
  0.0000  0.0000  0.0000  0.0000  0.4019
 
 occupancies and eigenvectors
 
  o =  0.4019  v =  0.0000  0.0000  0.0000  0.0000  0.0000  0.0000  0.0000  0.0000  0.7071  0.7071      0.0000  0.0000  0.0000  0.0000  0.0000  0.0000  0.0000  0.0000  0.0000  0.0000
  o =  0.4019  v =  0.0000  0.0000  0.0000  0.0000  0.0000  1.0000  0.0000  0.0000  0.0000  0.0000      0.0000  0.0000  0.0000  0.0000  0.0000  0.0000  0.0000  0.0000  0.0000  0.0000
  o =  0.4019  v =  0.0000  0.0000  0.0000  0.0000  0.0000  0.0000  1.0000  0.0000  0.0000  0.0000      0.0000  0.0000  0.0000  0.0000  0.0000  0.0000  0.0000  0.0000  0.0000  0.0000
  o =  0.4019  v =  0.0000  0.0000  0.0000  0.0000  0.0000  0.0000  0.0000  1.0000  0.0000  0.0000      0.0000  0.0000  0.0000  0.0000  0.0000  0.0000  0.0000  0.0000  0.0000  0.0000
  o =  0.4019  v =  0.0000  0.0000  0.0000  0.0000  0.0000  0.0000  0.0000  0.0000 -0.7071  0.7071      0.0000  0.0000  0.0000  0.0000  0.0000  0.0000  0.0000  0.0000  0.0000  0.0000
  o =  0.6509  v =  0.0000  1.0000  0.0000  0.0000  0.0000  0.0000  0.0000  0.0000  0.0000  0.0000      0.0000  0.0000  0.0000  0.0000  0.0000  0.0000  0.0000  0.0000  0.0000  0.0000
  o =  0.6509  v =  0.0000  0.0000  1.0000  0.0000  0.0000  0.0000  0.0000  0.0000  0.0000  0.0000      0.0000  0.0000  0.0000  0.0000  0.0000  0.0000  0.0000  0.0000  0.0000  0.0000
  o =  0.6509  v =  0.0000  0.0000  0.0000  0.0000 -1.0000  0.0000  0.0000  0.0000  0.0000  0.0000      0.0000  0.0000  0.0000  0.0000  0.0000  0.0000  0.0000  0.0000  0.0000  0.0000
  o =  0.6509  v =  0.0000  0.0000  0.0000 -1.0000  0.0000  0.0000  0.0000  0.0000  0.0000  0.0000      0.0000  0.0000  0.0000  0.0000  0.0000  0.0000  0.0000  0.0000  0.0000  0.0000
  o =  0.6509  v =  1.0000  0.0000  0.0000  0.0000  0.0000  0.0000  0.0000  0.0000  0.0000  0.0000      0.0000  0.0000  0.0000  0.0000  0.0000  0.0000  0.0000  0.0000  0.0000  0.0000
atom =  11  type =  2  l = 2
 
 onsite density matrix
 
spin component  1
 
  0.6488  0.0000  0.0000  0.0000  0.0000
  0.0000  0.6488  0.0000  0.0000  0.0000
  0.0000  0.0000  0.6488  0.0000  0.0000
  0.0000  0.0000  0.0000  0.6488  0.0000
  0.0000  0.0000  0.0000  0.0000  0.6488
 
spin component  2
 
  0.4040  0.0000  0.0000  0.0000  0.0000
  0.0000  0.4040  0.0000  0.0000  0.0000
  0.0000  0.0000  0.4040  0.0000  0.0000
  0.0000  0.0000  0.0000  0.4040  0.0000
  0.0000  0.0000  0.0000  0.0000  0.4040
 
 occupancies and eigenvectors
 
  o =  0.4040  v =  0.0000  0.0000  0.0000  0.0000  0.0000  0.0000  0.0000  0.0000  0.7071  0.7071      0.0000  0.0000  0.0000  0.0000  0.0000  0.0000  0.0000  0.0000  0.0000  0.0000
  o =  0.4040  v =  0.0000  0.0000  0.0000  0.0000  0.0000  1.0000  0.0000  0.0000  0.0000  0.0000      0.0000  0.0000  0.0000  0.0000  0.0000  0.0000  0.0000  0.0000  0.0000  0.0000
  o =  0.4040  v =  0.0000  0.0000  0.0000  0.0000  0.0000  0.0000  1.0000  0.0000  0.0000  0.0000      0.0000  0.0000  0.0000  0.0000  0.0000  0.0000  0.0000  0.0000  0.0000  0.0000
  o =  0.4040  v =  0.0000  0.0000  0.0000  0.0000  0.0000  0.0000  0.0000  1.0000  0.0000  0.0000      0.0000  0.0000  0.0000  0.0000  0.0000  0.0000  0.0000  0.0000  0.0000  0.0000
  o =  0.4040  v =  0.0000  0.0000  0.0000  0.0000  0.0000  0.0000  0.0000  0.0000 -0.7071  0.7071      0.0000  0.0000  0.0000  0.0000  0.0000  0.0000  0.0000  0.0000  0.0000  0.0000
  o =  0.6488  v =  0.0000  1.0000  0.0000  0.0000  0.0000  0.0000  0.0000  0.0000  0.0000  0.0000      0.0000  0.0000  0.0000  0.0000  0.0000  0.0000  0.0000  0.0000  0.0000  0.0000
  o =  0.6488  v =  0.0000  0.0000  1.0000  0.0000  0.0000  0.0000  0.0000  0.0000  0.0000  0.0000      0.0000  0.0000  0.0000  0.0000  0.0000  0.0000  0.0000  0.0000  0.0000  0.0000
  o =  0.6488  v =  0.0000  0.0000  0.0000  0.0000 -1.0000  0.0000  0.0000  0.0000  0.0000  0.0000      0.0000  0.0000  0.0000  0.0000  0.0000  0.0000  0.0000  0.0000  0.0000  0.0000
  o =  0.6488  v =  0.0000  0.0000  0.0000 -1.0000  0.0000  0.0000  0.0000  0.0000  0.0000  0.0000      0.0000  0.0000  0.0000  0.0000  0.0000  0.0000  0.0000  0.0000  0.0000  0.0000
  o =  0.6488  v =  1.0000  0.0000  0.0000  0.0000  0.0000  0.0000  0.0000  0.0000  0.0000  0.0000      0.0000  0.0000  0.0000  0.0000  0.0000  0.0000  0.0000  0.0000  0.0000  0.0000
atom =  12  type =  2  l = 2
 
 onsite density matrix
 
spin component  1
 
  0.6500  0.0000  0.0000  0.0000  0.0000
  0.0000  0.6500  0.0000  0.0000  0.0000
  0.0000  0.0000  0.6500  0.0000  0.0000
  0.0000  0.0000  0.0000  0.6500  0.0000
  0.0000  0.0000  0.0000  0.0000  0.6500
 
spin component  2
 
  0.4029  0.0000  0.0000  0.0000  0.0000
  0.0000  0.4029  0.0000  0.0000  0.0000
  0.0000  0.0000  0.4029  0.0000  0.0000
  0.0000  0.0000  0.0000  0.4029  0.0000
  0.0000  0.0000  0.0000  0.0000  0.4029
 
 occupancies and eigenvectors
 
  o =  0.4029  v =  0.0000  0.0000  0.0000  0.0000  0.0000  1.0000  0.0000  0.0000  0.0000  0.0000      0.0000  0.0000  0.0000  0.0000  0.0000  0.0000  0.0000  0.0000  0.0000  0.0000
  o =  0.4029  v =  0.0000  0.0000  0.0000  0.0000  0.0000  0.0000  1.0000  0.0000  0.0000  0.0000      0.0000  0.0000  0.0000  0.0000  0.0000  0.0000  0.0000  0.0000  0.0000  0.0000
  o =  0.4029  v =  0.0000  0.0000  0.0000  0.0000  0.0000  0.0000  0.0000  1.0000  0.0000  0.0000      0.0000  0.0000  0.0000  0.0000  0.0000  0.0000  0.0000  0.0000  0.0000  0.0000
  o =  0.4029  v =  0.0000  0.0000  0.0000  0.0000  0.0000  0.0000  0.0000  0.0000  0.0000 -1.0000      0.0000  0.0000  0.0000  0.0000  0.0000  0.0000  0.0000  0.0000  0.0000  0.0000
  o =  0.4029  v =  0.0000  0.0000  0.0000  0.0000  0.0000  0.0000  0.0000  0.0000 -1.0000  0.0000      0.0000  0.0000  0.0000  0.0000  0.0000  0.0000  0.0000  0.0000  0.0000  0.0000
  o =  0.6500  v =  1.0000  0.0000  0.0000  0.0000  0.0000  0.0000  0.0000  0.0000  0.0000  0.0000      0.0000  0.0000  0.0000  0.0000  0.0000  0.0000  0.0000  0.0000  0.0000  0.0000
  o =  0.6500  v =  0.0000  1.0000  0.0000  0.0000  0.0000  0.0000  0.0000  0.0000  0.0000  0.0000      0.0000  0.0000  0.0000  0.0000  0.0000  0.0000  0.0000  0.0000  0.0000  0.0000
  o =  0.6500  v =  0.0000  0.0000  1.0000  0.0000  0.0000  0.0000  0.0000  0.0000  0.0000  0.0000      0.0000  0.0000  0.0000  0.0000  0.0000  0.0000  0.0000  0.0000  0.0000  0.0000
  o =  0.6500  v =  0.0000  0.0000  0.0000  0.0000 -1.0000  0.0000  0.0000  0.0000  0.0000  0.0000      0.0000  0.0000  0.0000  0.0000  0.0000  0.0000  0.0000  0.0000  0.0000  0.0000
  o =  0.6500  v =  0.0000  0.0000  0.0000 -1.0000  0.0000  0.0000  0.0000  0.0000  0.0000  0.0000      0.0000  0.0000  0.0000  0.0000  0.0000  0.0000  0.0000  0.0000  0.0000  0.0000
atom =  13  type =  2  l = 2
 
 onsite density matrix
 
spin component  1
 
  0.6530  0.0000  0.0000  0.0000  0.0000
  0.0000  0.6530  0.0000  0.0000  0.0000
  0.0000  0.0000  0.6530  0.0000  0.0000
  0.0000  0.0000  0.0000  0.6530  0.0000
  0.0000  0.0000  0.0000  0.0000  0.6530
 
spin component  2
 
  0.3999  0.0000  0.0000  0.0000  0.0000
  0.0000  0.3999  0.0000  0.0000  0.0000
  0.0000  0.0000  0.3999  0.0000  0.0000
  0.0000  0.0000  0.0000  0.3999  0.0000
  0.0000  0.0000  0.0000  0.0000  0.3999
 
 occupancies and eigenvectors
 
  o =  0.3999  v =  0.0000  0.0000  0.0000  0.0000  0.0000  1.0000  0.0000  0.0000  0.0000  0.0000      0.0000  0.0000  0.0000  0.0000  0.0000  0.0000  0.0000  0.0000  0.0000  0.0000
  o =  0.3999  v =  0.0000  0.0000  0.0000  0.0000  0.0000  0.0000  1.0000  0.0000  0.0000  0.0000      0.0000  0.0000  0.0000  0.0000  0.0000  0.0000  0.0000  0.0000  0.0000  0.0000
  o =  0.3999  v =  0.0000  0.0000  0.0000  0.0000  0.0000  0.0000  0.0000  1.0000  0.0000  0.0000      0.0000  0.0000  0.0000  0.0000  0.0000  0.0000  0.0000  0.0000  0.0000  0.0000
  o =  0.3999  v =  0.0000  0.0000  0.0000  0.0000  0.0000  0.0000  0.0000  0.0000  0.0000 -1.0000      0.0000  0.0000  0.0000  0.0000  0.0000  0.0000  0.0000  0.0000  0.0000  0.0000
  o =  0.3999  v =  0.0000  0.0000  0.0000  0.0000  0.0000  0.0000  0.0000  0.0000 -1.0000  0.0000      0.0000  0.0000  0.0000  0.0000  0.0000  0.0000  0.0000  0.0000  0.0000  0.0000
  o =  0.6530  v =  0.0000  0.0000  0.0000  0.7071  0.7071  0.0000  0.0000  0.0000  0.0000  0.0000      0.0000  0.0000  0.0000  0.0000  0.0000  0.0000  0.0000  0.0000  0.0000  0.0000
  o =  0.6530  v =  0.0000  1.0000  0.0000  0.0000  0.0000  0.0000  0.0000  0.0000  0.0000  0.0000      0.0000  0.0000  0.0000  0.0000  0.0000  0.0000  0.0000  0.0000  0.0000  0.0000
  o =  0.6530  v =  0.0000  0.0000  1.0000  0.0000  0.0000  0.0000  0.0000  0.0000  0.0000  0.0000      0.0000  0.0000  0.0000  0.0000  0.0000  0.0000  0.0000  0.0000  0.0000  0.0000
  o =  0.6530  v =  0.0000  0.0000  0.0000 -0.7071  0.7071  0.0000  0.0000  0.0000  0.0000  0.0000      0.0000  0.0000  0.0000  0.0000  0.0000  0.0000  0.0000  0.0000  0.0000  0.0000
  o =  0.6530  v =  1.0000  0.0000  0.0000  0.0000  0.0000  0.0000  0.0000  0.0000  0.0000  0.0000      0.0000  0.0000  0.0000  0.0000  0.0000  0.0000  0.0000  0.0000  0.0000  0.0000
atom =  14  type =  2  l = 2
 
 onsite density matrix
 
spin component  1
 
  0.6509  0.0000  0.0000  0.0000  0.0000
  0.0000  0.6509  0.0000  0.0000  0.0000
  0.0000  0.0000  0.6509  0.0000  0.0000
  0.0000  0.0000  0.0000  0.6509  0.0000
  0.0000  0.0000  0.0000  0.0000  0.6509
 
spin component  2
 
  0.4019  0.0000  0.0000  0.0000  0.0000
  0.0000  0.4019  0.0000  0.0000  0.0000
  0.0000  0.0000  0.4019  0.0000  0.0000
  0.0000  0.0000  0.0000  0.4019  0.0000
  0.0000  0.0000  0.0000  0.0000  0.4019
 
 occupancies and eigenvectors
 
  o =  0.4019  v =  0.0000  0.0000  0.0000  0.0000  0.0000  0.0000  0.0000  0.0000  0.7071  0.7071      0.0000  0.0000  0.0000  0.0000  0.0000  0.0000  0.0000  0.0000  0.0000  0.0000
  o =  0.4019  v =  0.0000  0.0000  0.0000  0.0000  0.0000  1.0000  0.0000  0.0000  0.0000  0.0000      0.0000  0.0000  0.0000  0.0000  0.0000  0.0000  0.0000  0.0000  0.0000  0.0000
  o =  0.4019  v =  0.0000  0.0000  0.0000  0.0000  0.0000  0.0000  1.0000  0.0000  0.0000  0.0000      0.0000  0.0000  0.0000  0.0000  0.0000  0.0000  0.0000  0.0000  0.0000  0.0000
  o =  0.4019  v =  0.0000  0.0000  0.0000  0.0000  0.0000  0.0000  0.0000  1.0000  0.0000  0.0000      0.0000  0.0000  0.0000  0.0000  0.0000  0.0000  0.0000  0.0000  0.0000  0.0000
  o =  0.4019  v =  0.0000  0.0000  0.0000  0.0000  0.0000  0.0000  0.0000  0.0000 -0.7071  0.7071      0.0000  0.0000  0.0000  0.0000  0.0000  0.0000  0.0000  0.0000  0.0000  0.0000
  o =  0.6509  v =  0.0000  1.0000  0.0000  0.0000  0.0000  0.0000  0.0000  0.0000  0.0000  0.0000      0.0000  0.0000  0.0000  0.0000  0.0000  0.0000  0.0000  0.0000  0.0000  0.0000
  o =  0.6509  v =  0.0000  0.0000  1.0000  0.0000  0.0000  0.0000  0.0000  0.0000  0.0000  0.0000      0.0000  0.0000  0.0000  0.0000  0.0000  0.0000  0.0000  0.0000  0.0000  0.0000
  o =  0.6509  v =  0.0000  0.0000  0.0000  0.0000 -1.0000  0.0000  0.0000  0.0000  0.0000  0.0000      0.0000  0.0000  0.0000  0.0000  0.0000  0.0000  0.0000  0.0000  0.0000  0.0000
  o =  0.6509  v =  0.0000  0.0000  0.0000 -1.0000  0.0000  0.0000  0.0000  0.0000  0.0000  0.0000      0.0000  0.0000  0.0000  0.0000  0.0000  0.0000  0.0000  0.0000  0.0000  0.0000
  o =  0.6509  v =  1.0000  0.0000  0.0000  0.0000  0.0000  0.0000  0.0000  0.0000  0.0000  0.0000      0.0000  0.0000  0.0000  0.0000  0.0000  0.0000  0.0000  0.0000  0.0000  0.0000
atom =  15  type =  2  l = 2
 
 onsite density matrix
 
spin component  1
 
  0.6498  0.0000  0.0000  0.0000  0.0000
  0.0000  0.6498  0.0000  0.0000  0.0000
  0.0000  0.0000  0.6498  0.0000  0.0000
  0.0000  0.0000  0.0000  0.6498  0.0000
  0.0000  0.0000  0.0000  0.0000  0.6498
 
spin component  2
 
  0.4031  0.0000  0.0000  0.0000  0.0000
  0.0000  0.4031  0.0000  0.0000  0.0000
  0.0000  0.0000  0.4031  0.0000  0.0000
  0.0000  0.0000  0.0000  0.4031  0.0000
  0.0000  0.0000  0.0000  0.0000  0.4031
 
 occupancies and eigenvectors
 
  o =  0.4031  v =  0.0000  0.0000  0.0000  0.0000  0.0000  1.0000  0.0000  0.0000  0.0000  0.0000      0.0000  0.0000  0.0000  0.0000  0.0000  0.0000  0.0000  0.0000  0.0000  0.0000
  o =  0.4031  v =  0.0000  0.0000  0.0000  0.0000  0.0000  0.0000  1.0000  0.0000  0.0000  0.0000      0.0000  0.0000  0.0000  0.0000  0.0000  0.0000  0.0000  0.0000  0.0000  0.0000
  o =  0.4031  v =  0.0000  0.0000  0.0000  0.0000  0.0000  0.0000  0.0000  1.0000  0.0000  0.0000      0.0000  0.0000  0.0000  0.0000  0.0000  0.0000  0.0000  0.0000  0.0000  0.0000
  o =  0.4031  v =  0.0000  0.0000  0.0000  0.0000  0.0000  0.0000  0.0000  0.0000  0.0000 -1.0000      0.0000  0.0000  0.0000  0.0000  0.0000  0.0000  0.0000  0.0000  0.0000  0.0000
  o =  0.4031  v =  0.0000  0.0000  0.0000  0.0000  0.0000  0.0000  0.0000  0.0000 -1.0000  0.0000      0.0000  0.0000  0.0000  0.0000  0.0000  0.0000  0.0000  0.0000  0.0000  0.0000
  o =  0.6498  v =  1.0000  0.0000  0.0000  0.0000  0.0000  0.0000  0.0000  0.0000  0.0000  0.0000      0.0000  0.0000  0.0000  0.0000  0.0000  0.0000  0.0000  0.0000  0.0000  0.0000
  o =  0.6498  v =  0.0000  1.0000  0.0000  0.0000  0.0000  0.0000  0.0000  0.0000  0.0000  0.0000      0.0000  0.0000  0.0000  0.0000  0.0000  0.0000  0.0000  0.0000  0.0000  0.0000
  o =  0.6498  v =  0.0000  0.0000  1.0000  0.0000  0.0000  0.0000  0.0000  0.0000  0.0000  0.0000      0.0000  0.0000  0.0000  0.0000  0.0000  0.0000  0.0000  0.0000  0.0000  0.0000
  o =  0.6498  v =  0.0000  0.0000  0.0000  0.0000 -1.0000  0.0000  0.0000  0.0000  0.0000  0.0000      0.0000  0.0000  0.0000  0.0000  0.0000  0.0000  0.0000  0.0000  0.0000  0.0000
  o =  0.6498  v =  0.0000  0.0000  0.0000 -1.0000  0.0000  0.0000  0.0000  0.0000  0.0000  0.0000      0.0000  0.0000  0.0000  0.0000  0.0000  0.0000  0.0000  0.0000  0.0000  0.0000
atom =  16  type =  2  l = 2
 
 onsite density matrix
 
spin component  1
 
  0.6494  0.0000  0.0000  0.0000  0.0000
  0.0000  0.6494  0.0000  0.0000  0.0000
  0.0000  0.0000  0.6494  0.0000  0.0000
  0.0000  0.0000  0.0000  0.6494  0.0000
  0.0000  0.0000  0.0000  0.0000  0.6494
 
spin component  2
 
  0.4034  0.0000  0.0000  0.0000  0.0000
  0.0000  0.4034  0.0000  0.0000  0.0000
  0.0000  0.0000  0.4034  0.0000  0.0000
  0.0000  0.0000  0.0000  0.4034  0.0000
  0.0000  0.0000  0.0000  0.0000  0.4034
 
 occupancies and eigenvectors
 
  o =  0.4034  v =  0.0000  0.0000  0.0000  0.0000  0.0000  1.0000  0.0000  0.0000  0.0000  0.0000      0.0000  0.0000  0.0000  0.0000  0.0000  0.0000  0.0000  0.0000  0.0000  0.0000
  o =  0.4034  v =  0.0000  0.0000  0.0000  0.0000  0.0000  0.0000  1.0000  0.0000  0.0000  0.0000      0.0000  0.0000  0.0000  0.0000  0.0000  0.0000  0.0000  0.0000  0.0000  0.0000
  o =  0.4034  v =  0.0000  0.0000  0.0000  0.0000  0.0000  0.0000  0.0000  1.0000  0.0000  0.0000      0.0000  0.0000  0.0000  0.0000  0.0000  0.0000  0.0000  0.0000  0.0000  0.0000
  o =  0.4034  v =  0.0000  0.0000  0.0000  0.0000  0.0000  0.0000  0.0000  0.0000  0.0000 -1.0000      0.0000  0.0000  0.0000  0.0000  0.0000  0.0000  0.0000  0.0000  0.0000  0.0000
  o =  0.4034  v =  0.0000  0.0000  0.0000  0.0000  0.0000  0.0000  0.0000  0.0000 -1.0000  0.0000      0.0000  0.0000  0.0000  0.0000  0.0000  0.0000  0.0000  0.0000  0.0000  0.0000
  o =  0.6494  v =  0.0000  0.0000  0.0000  0.7071  0.7071  0.0000  0.0000  0.0000  0.0000  0.0000      0.0000  0.0000  0.0000  0.0000  0.0000  0.0000  0.0000  0.0000  0.0000  0.0000
  o =  0.6494  v =  0.0000  1.0000  0.0000  0.0000  0.0000  0.0000  0.0000  0.0000  0.0000  0.0000      0.0000  0.0000  0.0000  0.0000  0.0000  0.0000  0.0000  0.0000  0.0000  0.0000
  o =  0.6494  v =  0.0000  0.0000  1.0000  0.0000  0.0000  0.0000  0.0000  0.0000  0.0000  0.0000      0.0000  0.0000  0.0000  0.0000  0.0000  0.0000  0.0000  0.0000  0.0000  0.0000
  o =  0.6494  v =  0.0000  0.0000  0.0000 -0.7071  0.7071  0.0000  0.0000  0.0000  0.0000  0.0000      0.0000  0.0000  0.0000  0.0000  0.0000  0.0000  0.0000  0.0000  0.0000  0.0000
  o =  0.6494  v =  1.0000  0.0000  0.0000  0.0000  0.0000  0.0000  0.0000  0.0000  0.0000  0.0000      0.0000  0.0000  0.0000  0.0000  0.0000  0.0000  0.0000  0.0000  0.0000  0.0000
atom =  17  type =  2  l = 2
 
 onsite density matrix
 
spin component  1
 
  0.6499  0.0000  0.0000  0.0000  0.0000
  0.0000  0.6499  0.0000  0.0000  0.0000
  0.0000  0.0000  0.6499  0.0000  0.0000
  0.0000  0.0000  0.0000  0.6499  0.0000
  0.0000  0.0000  0.0000  0.0000  0.6499
 
spin component  2
 
  0.4029  0.0000  0.0000  0.0000  0.0000
  0.0000  0.4029  0.0000  0.0000  0.0000
  0.0000  0.0000  0.4029  0.0000  0.0000
  0.0000  0.0000  0.0000  0.4029  0.0000
  0.0000  0.0000  0.0000  0.0000  0.4029
 
 occupancies and eigenvectors
 
  o =  0.4029  v =  0.0000  0.0000  0.0000  0.0000  0.0000  1.0000  0.0000  0.0000  0.0000  0.0000      0.0000  0.0000  0.0000  0.0000  0.0000  0.0000  0.0000  0.0000  0.0000  0.0000
  o =  0.4029  v =  0.0000  0.0000  0.0000  0.0000  0.0000  0.0000  1.0000  0.0000  0.0000  0.0000      0.0000  0.0000  0.0000  0.0000  0.0000  0.0000  0.0000  0.0000  0.0000  0.0000
  o =  0.4029  v =  0.0000  0.0000  0.0000  0.0000  0.0000  0.0000  0.0000  1.0000  0.0000  0.0000      0.0000  0.0000  0.0000  0.0000  0.0000  0.0000  0.0000  0.0000  0.0000  0.0000
  o =  0.4029  v =  0.0000  0.0000  0.0000  0.0000  0.0000  0.0000  0.0000  0.0000  0.0000 -1.0000      0.0000  0.0000  0.0000  0.0000  0.0000  0.0000  0.0000  0.0000  0.0000  0.0000
  o =  0.4029  v =  0.0000  0.0000  0.0000  0.0000  0.0000  0.0000  0.0000  0.0000 -1.0000  0.0000      0.0000  0.0000  0.0000  0.0000  0.0000  0.0000  0.0000  0.0000  0.0000  0.0000
  o =  0.6499  v =  0.0000  0.0000  0.0000  0.7071  0.7071  0.0000  0.0000  0.0000  0.0000  0.0000      0.0000  0.0000  0.0000  0.0000  0.0000  0.0000  0.0000  0.0000  0.0000  0.0000
  o =  0.6499  v =  0.0000  1.0000  0.0000  0.0000  0.0000  0.0000  0.0000  0.0000  0.0000  0.0000      0.0000  0.0000  0.0000  0.0000  0.0000  0.0000  0.0000  0.0000  0.0000  0.0000
  o =  0.6499  v =  0.0000  0.0000  1.0000  0.0000  0.0000  0.0000  0.0000  0.0000  0.0000  0.0000      0.0000  0.0000  0.0000  0.0000  0.0000  0.0000  0.0000  0.0000  0.0000  0.0000
  o =  0.6499  v =  0.0000  0.0000  0.0000 -0.7071  0.7071  0.0000  0.0000  0.0000  0.0000  0.0000      0.0000  0.0000  0.0000  0.0000  0.0000  0.0000  0.0000  0.0000  0.0000  0.0000
  o =  0.6499  v =  1.0000  0.0000  0.0000  0.0000  0.0000  0.0000  0.0000  0.0000  0.0000  0.0000      0.0000  0.0000  0.0000  0.0000  0.0000  0.0000  0.0000  0.0000  0.0000  0.0000
atom =  18  type =  2  l = 2
 
 onsite density matrix
 
spin component  1
 
  0.6506  0.0000  0.0000  0.0000  0.0000
  0.0000  0.6506  0.0000  0.0000  0.0000
  0.0000  0.0000  0.6506  0.0000  0.0000
  0.0000  0.0000  0.0000  0.6506  0.0000
  0.0000  0.0000  0.0000  0.0000  0.6506
 
spin component  2
 
  0.4022  0.0000  0.0000  0.0000  0.0000
  0.0000  0.4022  0.0000  0.0000  0.0000
  0.0000  0.0000  0.4022  0.0000  0.0000
  0.0000  0.0000  0.0000  0.4022  0.0000
  0.0000  0.0000  0.0000  0.0000  0.4022
 
 occupancies and eigenvectors
 
  o =  0.4022  v =  0.0000  0.0000  0.0000  0.0000  0.0000  0.0000  0.0000  0.0000  0.7071  0.7071      0.0000  0.0000  0.0000  0.0000  0.0000  0.0000  0.0000  0.0000  0.0000  0.0000
  o =  0.4022  v =  0.0000  0.0000  0.0000  0.0000  0.0000  1.0000  0.0000  0.0000  0.0000  0.0000      0.0000  0.0000  0.0000  0.0000  0.0000  0.0000  0.0000  0.0000  0.0000  0.0000
  o =  0.4022  v =  0.0000  0.0000  0.0000  0.0000  0.0000  0.0000  1.0000  0.0000  0.0000  0.0000      0.0000  0.0000  0.0000  0.0000  0.0000  0.0000  0.0000  0.0000  0.0000  0.0000
  o =  0.4022  v =  0.0000  0.0000  0.0000  0.0000  0.0000  0.0000  0.0000  1.0000  0.0000  0.0000      0.0000  0.0000  0.0000  0.0000  0.0000  0.0000  0.0000  0.0000  0.0000  0.0000
  o =  0.4022  v =  0.0000  0.0000  0.0000  0.0000  0.0000  0.0000  0.0000  0.0000 -0.7071  0.7071      0.0000  0.0000  0.0000  0.0000  0.0000  0.0000  0.0000  0.0000  0.0000  0.0000
  o =  0.6506  v =  0.0000  1.0000  0.0000  0.0000  0.0000  0.0000  0.0000  0.0000  0.0000  0.0000      0.0000  0.0000  0.0000  0.0000  0.0000  0.0000  0.0000  0.0000  0.0000  0.0000
  o =  0.6506  v =  0.0000  0.0000  1.0000  0.0000  0.0000  0.0000  0.0000  0.0000  0.0000  0.0000      0.0000  0.0000  0.0000  0.0000  0.0000  0.0000  0.0000  0.0000  0.0000  0.0000
  o =  0.6506  v =  0.0000  0.0000  0.0000  0.0000 -1.0000  0.0000  0.0000  0.0000  0.0000  0.0000      0.0000  0.0000  0.0000  0.0000  0.0000  0.0000  0.0000  0.0000  0.0000  0.0000
  o =  0.6506  v =  0.0000  0.0000  0.0000 -1.0000  0.0000  0.0000  0.0000  0.0000  0.0000  0.0000      0.0000  0.0000  0.0000  0.0000  0.0000  0.0000  0.0000  0.0000  0.0000  0.0000
  o =  0.6506  v =  1.0000  0.0000  0.0000  0.0000  0.0000  0.0000  0.0000  0.0000  0.0000  0.0000      0.0000  0.0000  0.0000  0.0000  0.0000  0.0000  0.0000  0.0000  0.0000  0.0000
atom =  19  type =  2  l = 2
 
 onsite density matrix
 
spin component  1
 
  0.6491  0.0000  0.0000  0.0000  0.0000
  0.0000  0.6491  0.0000  0.0000  0.0000
  0.0000  0.0000  0.6491  0.0000  0.0000
  0.0000  0.0000  0.0000  0.6491  0.0000
  0.0000  0.0000  0.0000  0.0000  0.6491
 
spin component  2
 
  0.4037  0.0000  0.0000  0.0000  0.0000
  0.0000  0.4037  0.0000  0.0000  0.0000
  0.0000  0.0000  0.4037  0.0000  0.0000
  0.0000  0.0000  0.0000  0.4037  0.0000
  0.0000  0.0000  0.0000  0.0000  0.4037
 
 occupancies and eigenvectors
 
  o =  0.4037  v =  0.0000  0.0000  0.0000  0.0000  0.0000  0.0000  0.0000  0.0000  0.7071  0.7071      0.0000  0.0000  0.0000  0.0000  0.0000  0.0000  0.0000  0.0000  0.0000  0.0000
  o =  0.4037  v =  0.0000  0.0000  0.0000  0.0000  0.0000  1.0000  0.0000  0.0000  0.0000  0.0000      0.0000  0.0000  0.0000  0.0000  0.0000  0.0000  0.0000  0.0000  0.0000  0.0000
  o =  0.4037  v =  0.0000  0.0000  0.0000  0.0000  0.0000  0.0000  1.0000  0.0000  0.0000  0.0000      0.0000  0.0000  0.0000  0.0000  0.0000  0.0000  0.0000  0.0000  0.0000  0.0000
  o =  0.4037  v =  0.0000  0.0000  0.0000  0.0000  0.0000  0.0000  0.0000  1.0000  0.0000  0.0000      0.0000  0.0000  0.0000  0.0000  0.0000  0.0000  0.0000  0.0000  0.0000  0.0000
  o =  0.4037  v =  0.0000  0.0000  0.0000  0.0000  0.0000  0.0000  0.0000  0.0000 -0.7071  0.7071      0.0000  0.0000  0.0000  0.0000  0.0000  0.0000  0.0000  0.0000  0.0000  0.0000
  o =  0.6491  v =  0.0000  1.0000  0.0000  0.0000  0.0000  0.0000  0.0000  0.0000  0.0000  0.0000      0.0000  0.0000  0.0000  0.0000  0.0000  0.0000  0.0000  0.0000  0.0000  0.0000
  o =  0.6491  v =  0.0000  0.0000  1.0000  0.0000  0.0000  0.0000  0.0000  0.0000  0.0000  0.0000      0.0000  0.0000  0.0000  0.0000  0.0000  0.0000  0.0000  0.0000  0.0000  0.0000
  o =  0.6491  v =  0.0000  0.0000  0.0000  0.0000 -1.0000  0.0000  0.0000  0.0000  0.0000  0.0000      0.0000  0.0000  0.0000  0.0000  0.0000  0.0000  0.0000  0.0000  0.0000  0.0000
  o =  0.6491  v =  0.0000  0.0000  0.0000 -1.0000  0.0000  0.0000  0.0000  0.0000  0.0000  0.0000      0.0000  0.0000  0.0000  0.0000  0.0000  0.0000  0.0000  0.0000  0.0000  0.0000
  o =  0.6491  v =  1.0000  0.0000  0.0000  0.0000  0.0000  0.0000  0.0000  0.0000  0.0000  0.0000      0.0000  0.0000  0.0000  0.0000  0.0000  0.0000  0.0000  0.0000  0.0000  0.0000
atom =  20  type =  2  l = 2
 
 onsite density matrix
 
spin component  1
 
  0.6501  0.0000  0.0000  0.0000  0.0000
  0.0000  0.6501  0.0000  0.0000  0.0000
  0.0000  0.0000  0.6501  0.0000  0.0000
  0.0000  0.0000  0.0000  0.6501  0.0000
  0.0000  0.0000  0.0000  0.0000  0.6501
 
spin component  2
 
  0.4027  0.0000  0.0000  0.0000  0.0000
  0.0000  0.4027  0.0000  0.0000  0.0000
  0.0000  0.0000  0.4027  0.0000  0.0000
  0.0000  0.0000  0.0000  0.4027  0.0000
  0.0000  0.0000  0.0000  0.0000  0.4027
 
 occupancies and eigenvectors
 
  o =  0.4027  v =  0.0000  0.0000  0.0000  0.0000  0.0000  1.0000  0.0000  0.0000  0.0000  0.0000      0.0000  0.0000  0.0000  0.0000  0.0000  0.0000  0.0000  0.0000  0.0000  0.0000
  o =  0.4027  v =  0.0000  0.0000  0.0000  0.0000  0.0000  0.0000  1.0000  0.0000  0.0000  0.0000      0.0000  0.0000  0.0000  0.0000  0.0000  0.0000  0.0000  0.0000  0.0000  0.0000
  o =  0.4027  v =  0.0000  0.0000  0.0000  0.0000  0.0000  0.0000  0.0000  1.0000  0.0000  0.0000      0.0000  0.0000  0.0000  0.0000  0.0000  0.0000  0.0000  0.0000  0.0000  0.0000
  o =  0.4027  v =  0.0000  0.0000  0.0000  0.0000  0.0000  0.0000  0.0000  0.0000  0.0000 -1.0000      0.0000  0.0000  0.0000  0.0000  0.0000  0.0000  0.0000  0.0000  0.0000  0.0000
  o =  0.4027  v =  0.0000  0.0000  0.0000  0.0000  0.0000  0.0000  0.0000  0.0000 -1.0000  0.0000      0.0000  0.0000  0.0000  0.0000  0.0000  0.0000  0.0000  0.0000  0.0000  0.0000
  o =  0.6501  v =  1.0000  0.0000  0.0000  0.0000  0.0000  0.0000  0.0000  0.0000  0.0000  0.0000      0.0000  0.0000  0.0000  0.0000  0.0000  0.0000  0.0000  0.0000  0.0000  0.0000
  o =  0.6501  v =  0.0000  1.0000  0.0000  0.0000  0.0000  0.0000  0.0000  0.0000  0.0000  0.0000      0.0000  0.0000  0.0000  0.0000  0.0000  0.0000  0.0000  0.0000  0.0000  0.0000
  o =  0.6501  v =  0.0000  0.0000  1.0000  0.0000  0.0000  0.0000  0.0000  0.0000  0.0000  0.0000      0.0000  0.0000  0.0000  0.0000  0.0000  0.0000  0.0000  0.0000  0.0000  0.0000
  o =  0.6501  v =  0.0000  0.0000  0.0000  0.0000 -1.0000  0.0000  0.0000  0.0000  0.0000  0.0000      0.0000  0.0000  0.0000  0.0000  0.0000  0.0000  0.0000  0.0000  0.0000  0.0000
  o =  0.6501  v =  0.0000  0.0000  0.0000 -1.0000  0.0000  0.0000  0.0000  0.0000  0.0000  0.0000      0.0000  0.0000  0.0000  0.0000  0.0000  0.0000  0.0000  0.0000  0.0000  0.0000
atom =  21  type =  2  l = 2
 
 onsite density matrix
 
spin component  1
 
  0.6512  0.0000  0.0000  0.0000  0.0000
  0.0000  0.6512  0.0000  0.0000  0.0000
  0.0000  0.0000  0.6512  0.0000  0.0000
  0.0000  0.0000  0.0000  0.6512  0.0000
  0.0000  0.0000  0.0000  0.0000  0.6512
 
spin component  2
 
  0.4016  0.0000  0.0000  0.0000  0.0000
  0.0000  0.4016  0.0000  0.0000  0.0000
  0.0000  0.0000  0.4016  0.0000  0.0000
  0.0000  0.0000  0.0000  0.4016  0.0000
  0.0000  0.0000  0.0000  0.0000  0.4016
 
 occupancies and eigenvectors
 
  o =  0.4016  v =  0.0000  0.0000  0.0000  0.0000  0.0000  1.0000  0.0000  0.0000  0.0000  0.0000      0.0000  0.0000  0.0000  0.0000  0.0000  0.0000  0.0000  0.0000  0.0000  0.0000
  o =  0.4016  v =  0.0000  0.0000  0.0000  0.0000  0.0000  0.0000  1.0000  0.0000  0.0000  0.0000      0.0000  0.0000  0.0000  0.0000  0.0000  0.0000  0.0000  0.0000  0.0000  0.0000
  o =  0.4016  v =  0.0000  0.0000  0.0000  0.0000  0.0000  0.0000  0.0000  1.0000  0.0000  0.0000      0.0000  0.0000  0.0000  0.0000  0.0000  0.0000  0.0000  0.0000  0.0000  0.0000
  o =  0.4016  v =  0.0000  0.0000  0.0000  0.0000  0.0000  0.0000  0.0000  0.0000  0.0000 -1.0000      0.0000  0.0000  0.0000  0.0000  0.0000  0.0000  0.0000  0.0000  0.0000  0.0000
  o =  0.4016  v =  0.0000  0.0000  0.0000  0.0000  0.0000  0.0000  0.0000  0.0000 -1.0000  0.0000      0.0000  0.0000  0.0000  0.0000  0.0000  0.0000  0.0000  0.0000  0.0000  0.0000
  o =  0.6512  v =  1.0000  0.0000  0.0000  0.0000  0.0000  0.0000  0.0000  0.0000  0.0000  0.0000      0.0000  0.0000  0.0000  0.0000  0.0000  0.0000  0.0000  0.0000  0.0000  0.0000
  o =  0.6512  v =  0.0000  1.0000  0.0000  0.0000  0.0000  0.0000  0.0000  0.0000  0.0000  0.0000      0.0000  0.0000  0.0000  0.0000  0.0000  0.0000  0.0000  0.0000  0.0000  0.0000
  o =  0.6512  v =  0.0000  0.0000  1.0000  0.0000  0.0000  0.0000  0.0000  0.0000  0.0000  0.0000      0.0000  0.0000  0.0000  0.0000  0.0000  0.0000  0.0000  0.0000  0.0000  0.0000
  o =  0.6512  v =  0.0000  0.0000  0.0000  0.0000 -1.0000  0.0000  0.0000  0.0000  0.0000  0.0000      0.0000  0.0000  0.0000  0.0000  0.0000  0.0000  0.0000  0.0000  0.0000  0.0000
  o =  0.6512  v =  0.0000  0.0000  0.0000 -1.0000  0.0000  0.0000  0.0000  0.0000  0.0000  0.0000      0.0000  0.0000  0.0000  0.0000  0.0000  0.0000  0.0000  0.0000  0.0000  0.0000
atom =  22  type =  2  l = 2
 
 onsite density matrix
 
spin component  1
 
  0.6502  0.0000  0.0000  0.0000  0.0000
  0.0000  0.6502  0.0000  0.0000  0.0000
  0.0000  0.0000  0.6502  0.0000  0.0000
  0.0000  0.0000  0.0000  0.6502  0.0000
  0.0000  0.0000  0.0000  0.0000  0.6502
 
spin component  2
 
  0.4026  0.0000  0.0000  0.0000  0.0000
  0.0000  0.4026  0.0000  0.0000  0.0000
  0.0000  0.0000  0.4026  0.0000  0.0000
  0.0000  0.0000  0.0000  0.4026  0.0000
  0.0000  0.0000  0.0000  0.0000  0.4026
 
 occupancies and eigenvectors
 
  o =  0.4026  v =  0.0000  0.0000  0.0000  0.0000  0.0000  1.0000  0.0000  0.0000  0.0000  0.0000      0.0000  0.0000  0.0000  0.0000  0.0000  0.0000  0.0000  0.0000  0.0000  0.0000
  o =  0.4026  v =  0.0000  0.0000  0.0000  0.0000  0.0000  0.0000  1.0000  0.0000  0.0000  0.0000      0.0000  0.0000  0.0000  0.0000  0.0000  0.0000  0.0000  0.0000  0.0000  0.0000
  o =  0.4026  v =  0.0000  0.0000  0.0000  0.0000  0.0000  0.0000  0.0000  1.0000  0.0000  0.0000      0.0000  0.0000  0.0000  0.0000  0.0000  0.0000  0.0000  0.0000  0.0000  0.0000
  o =  0.4026  v =  0.0000  0.0000  0.0000  0.0000  0.0000  0.0000  0.0000  0.0000  0.0000 -1.0000      0.0000  0.0000  0.0000  0.0000  0.0000  0.0000  0.0000  0.0000  0.0000  0.0000
  o =  0.4026  v =  0.0000  0.0000  0.0000  0.0000  0.0000  0.0000  0.0000  0.0000 -1.0000  0.0000      0.0000  0.0000  0.0000  0.0000  0.0000  0.0000  0.0000  0.0000  0.0000  0.0000
  o =  0.6502  v =  1.0000  0.0000  0.0000  0.0000  0.0000  0.0000  0.0000  0.0000  0.0000  0.0000      0.0000  0.0000  0.0000  0.0000  0.0000  0.0000  0.0000  0.0000  0.0000  0.0000
[...]
   0.165E+03 0.356E+01 0.176E+03   -.178E+03 -.334E+01 -.190E+03   0.127E+02 -.199E+00 0.146E+02   -.339E-03 0.361E-03 -.699E-03
   0.152E+03 -.380E+01 0.202E+03   -.163E+03 0.363E+01 -.218E+03   0.117E+02 0.165E+00 0.159E+02   -.719E-03 0.812E-03 0.136E-03
   0.161E+03 -.838E+01 0.205E+03   -.173E+03 0.839E+01 -.220E+03   0.118E+02 0.807E-02 0.155E+02   -.838E-03 0.279E-03 -.527E-03
   0.130E+03 -.557E+01 0.202E+03   -.141E+03 0.634E+01 -.218E+03   0.110E+02 -.792E+00 0.162E+02   -.740E-03 -.182E-02 0.601E-03
   0.152E+03 0.258E+02 0.217E+03   -.163E+03 -.255E+02 -.232E+03   0.111E+02 -.274E+00 0.148E+02   -.679E-03 -.593E-03 -.781E-03
   -.109E+03 0.113E+03 0.214E+03   0.115E+03 -.122E+03 -.228E+03   -.633E+01 0.912E+01 0.147E+02   0.172E-02 0.335E-03 0.116E-02
   -.770E+02 0.136E+03 0.191E+03   0.829E+02 -.147E+03 -.206E+03   -.590E+01 0.104E+02 0.151E+02   0.825E-03 -.431E-03 -.928E-03
   -.826E+02 0.137E+03 0.206E+03   0.877E+02 -.148E+03 -.222E+03   -.507E+01 0.110E+02 0.162E+02   0.161E-04 -.192E-03 -.962E-03
   -.750E+02 0.139E+03 0.200E+03   0.810E+02 -.149E+03 -.216E+03   -.597E+01 0.996E+01 0.153E+02   0.782E-03 0.882E-03 0.436E-03
   -.709E+02 0.143E+03 0.169E+03   0.769E+02 -.153E+03 -.183E+03   -.599E+01 0.980E+01 0.141E+02   -.789E-02 -.383E-03 0.490E-02
   -.788E+02 0.125E+03 0.234E+03   0.846E+02 -.135E+03 -.250E+03   -.573E+01 0.978E+01 0.159E+02   -.163E-02 -.840E-03 -.143E-02
   -.649E+02 0.135E+03 0.211E+03   0.705E+02 -.146E+03 -.227E+03   -.553E+01 0.107E+02 0.152E+02   -.165E-03 -.122E-02 -.105E-03
   -.785E+02 0.129E+03 0.194E+03   0.840E+02 -.139E+03 -.210E+03   -.544E+01 0.954E+01 0.152E+02   -.270E-04 -.709E-03 -.655E-03
   -.168E+03 -.183E+02 -.220E+03   0.180E+03 0.156E+02 0.237E+03   -.120E+02 0.270E+01 -.170E+02   -.360E-02 0.821E-02 -.459E-02
   -.149E+03 -.131E+02 -.200E+03   0.161E+03 0.133E+02 0.215E+03   -.118E+02 -.184E+00 -.151E+02   -.464E-03 0.295E-03 0.718E-03
   -.130E+03 -.578E+01 -.202E+03   0.141E+03 0.656E+01 0.218E+03   -.110E+02 -.797E+00 -.161E+02   0.734E-03 -.163E-02 -.716E-03
   -.152E+03 0.256E+02 -.217E+03   0.164E+03 -.254E+02 0.232E+03   -.111E+02 -.278E+00 -.148E+02   0.768E-03 -.441E-03 0.792E-03
   -.152E+03 -.383E+01 -.202E+03   0.163E+03 0.367E+01 0.218E+03   -.117E+02 0.161E+00 -.159E+02   0.620E-03 0.804E-03 -.457E-04
   -.161E+03 -.841E+01 -.205E+03   0.173E+03 0.841E+01 0.221E+03   -.118E+02 0.490E-02 -.155E+02   0.636E-03 0.210E-03 0.449E-03
   -.136E+03 0.272E+02 -.233E+03   0.148E+03 -.271E+02 0.250E+03   -.115E+02 -.105E+00 -.168E+02   -.645E-03 -.118E-02 -.292E-03
   -.165E+03 0.361E+01 -.176E+03   0.177E+03 -.339E+01 0.190E+03   -.127E+02 -.205E+00 -.146E+02   0.315E-03 0.382E-03 0.555E-03
   0.708E+02 0.143E+03 -.169E+03   -.768E+02 -.153E+03 0.183E+03   0.598E+01 0.981E+01 -.141E+02   0.800E-02 -.302E-03 -.475E-02
   0.787E+02 0.125E+03 -.234E+03   -.844E+02 -.135E+03 0.250E+03   0.572E+01 0.978E+01 -.159E+02   0.171E-02 -.798E-03 0.122E-02
   0.823E+02 0.137E+03 -.206E+03   -.874E+02 -.148E+03 0.222E+03   0.507E+01 0.110E+02 -.162E+02   0.249E-03 -.100E-03 0.858E-03
   0.751E+02 0.139E+03 -.200E+03   -.811E+02 -.149E+03 0.216E+03   0.597E+01 0.996E+01 -.152E+02   -.893E-03 0.938E-03 -.393E-03
   0.109E+03 0.113E+03 -.214E+03   -.115E+03 -.122E+03 0.228E+03   0.632E+01 0.911E+01 -.147E+02   -.193E-02 0.306E-03 -.959E-03
   0.771E+02 0.136E+03 -.191E+03   -.830E+02 -.147E+03 0.206E+03   0.590E+01 0.104E+02 -.151E+02   -.104E-02 -.403E-03 0.690E-03
   0.652E+02 0.135E+03 -.211E+03   -.708E+02 -.146E+03 0.227E+03   0.554E+01 0.107E+02 -.152E+02   -.101E-03 -.123E-02 0.322E-03
   0.784E+02 0.129E+03 -.194E+03   -.838E+02 -.139E+03 0.210E+03   0.543E+01 0.953E+01 -.152E+02   0.118E-03 -.724E-03 0.495E-03
   0.111E+03 -.117E+03 -.191E+03   -.119E+03 0.125E+03 0.208E+03   0.859E+01 -.865E+01 -.164E+02   0.688E-03 -.878E-04 -.663E-03
   0.631E+02 -.133E+03 -.214E+03   -.688E+02 0.143E+03 0.229E+03   0.563E+01 -.999E+01 -.154E+02   -.264E-03 0.468E-03 0.675E-03
   0.810E+02 -.137E+03 -.208E+03   -.868E+02 0.148E+03 0.224E+03   0.567E+01 -.104E+02 -.159E+02   0.663E-03 0.190E-02 0.790E-03
   0.795E+02 -.145E+03 -.200E+03   -.856E+02 0.156E+03 0.216E+03   0.606E+01 -.106E+02 -.156E+02   0.122E-02 0.769E-03 -.400E-03
   -.585E+02 -.148E+03 -.233E+03   0.709E+02 0.159E+03 0.262E+03   -.124E+02 -.112E+02 -.286E+02   -.187E-02 -.807E-02 -.240E-02
   0.985E+02 -.123E+03 -.193E+03   -.104E+03 0.133E+03 0.208E+03   0.572E+01 -.985E+01 -.152E+02   -.830E-03 -.930E-03 0.167E-02
   0.779E+02 -.153E+03 -.200E+03   -.834E+02 0.164E+03 0.215E+03   0.550E+01 -.105E+02 -.152E+02   -.824E-03 0.214E-03 0.393E-03
   0.766E+02 -.132E+03 -.202E+03   -.822E+02 0.143E+03 0.217E+03   0.559E+01 -.101E+02 -.155E+02   -.117E-02 0.418E-03 0.367E-03
 -----------------------------------------------------------------------------------------------
   -.161E-01 -.611E+01 -.291E-01   -.895E-12 0.284E-13 0.134E-11   0.138E-01 0.611E+01 0.289E-01   0.130E-02 0.122E-02 -.784E-03
 
 
 POSITION                                       TOTAL-FORCE (eV/Angst)
 -----------------------------------------------------------------------------------
      4.98703      8.65825      8.22208        -0.008780     -0.005710     -0.001161
      4.99348      8.62667      4.10120        -0.002241      0.002295     -0.000809
     -2.45887      4.32633      8.22154        -0.004687      0.005898     -0.002148
      7.45467      4.32563      4.11620         0.004777      0.006197      0.002605
      0.00388      8.62606      0.00972         0.001994      0.001774      0.000865
      5.00702      0.00068      4.11639         0.008324     -0.005472      0.001690
      2.55593      4.42030      8.17009         0.001474      0.008994      0.005618
      2.43984      4.41972      4.16760        -0.000077      0.008001     -0.004969
     -0.02718      2.92815      2.20968        -0.020777      0.006118     -0.027026
      0.01346      2.87700      6.15751        -0.006777      0.018894     -0.014532
     -2.49977      7.14167      2.05464         0.001639      0.025169     -0.000365
     -2.49991      7.18505      6.16735         0.000766     -0.005301     -0.000475
      5.02437      2.92820      1.90325         0.026641      0.003067      0.028161
      4.98240      2.87718      6.18103         0.007792      0.020357      0.013418
      2.49873      7.22226      2.05577         0.000028      0.002031      0.001665
      2.49794      7.23315      6.16857         0.000549      0.000630     -0.000721
      2.49870      1.27574      2.05671        -0.003474      0.026286     -0.001536
      2.49809      1.41455      6.16928        -0.002876     -0.000191      0.000779
      0.00647      5.77765      2.09475        -0.031808      0.003654     -0.005822
      0.01091      5.76939      6.19785        -0.014221     -0.008766      0.024461
      7.49692      1.42939      2.05752        -0.000872      0.013332      0.000605
      7.49617      1.45126      6.17035        -0.002676      0.006939     -0.001125
      4.99079      5.77765      2.01719         0.032150      0.002143      0.006512
      4.98543      5.76986      6.13919         0.010115     -0.010033     -0.023191
      2.04456      3.09318      1.48753        -0.016796     -0.009667     -0.038714
      1.64138      2.77582      5.15098        -0.014541     -0.024992      0.010843
     -0.89751      7.07310      1.04730         0.055274      0.009211     -0.019829
     -0.88347      7.10116      5.18342         0.019496      0.005781     -0.052135
      6.62015      2.75549      0.99019         0.000826     -0.002646      0.014738
      6.59080      2.79439      5.17412         0.017932     -0.002500     -0.003311
      4.10447      7.12916      1.03667        -0.010724      0.048651     -0.036492
      4.09021      7.10493      5.12814         0.007491      0.001052      0.015921
     -3.19291      8.60307      1.00425         0.016698      0.009280      0.024416
     -3.21168      8.62791      5.14604         0.017648     -0.009140     -0.016133
     -0.66536      4.30448      1.09548         0.020144     -0.002674      0.013671
     -0.71034      4.33778      5.16882         0.019476      0.013303     -0.007489
      6.79785      0.00508      1.03360         0.006736      0.002903      0.006478
      6.78038      0.01445      5.15502         0.009910      0.012182     -0.002340
      4.38169      4.37099      0.88886         0.028045     -0.022728     -0.032646
      4.25123      4.29928      5.13804        -0.022567     -0.041922     -0.000450
     -0.83744      1.57434      1.09755         0.037938      0.027736      0.028069
      9.10346      1.53629      5.15129        -0.004244     -0.000926     -0.014904
      6.61114      5.85272      1.02746         0.019888      0.000016      0.007177
      6.59818      5.85957      5.13989        -0.015769     -0.009567     -0.001168
      4.11937      1.48144      1.06933        -0.006944     -0.026108     -0.007415
      4.13780      1.48623      5.22873         0.007326     -0.043808     -0.007097
      1.60604      5.87153      1.07196        -0.013802     -0.000948     -0.071313
      1.60210      5.89254      5.17895         0.014003      0.007666     -0.040384
     -1.80660      8.60340      3.10474        -0.012395      0.005848     -0.022223
     -1.78835      8.62830      7.18826        -0.017330     -0.010327      0.016421
      0.61633      4.37115      3.22387        -0.036986     -0.020629      0.024642
      0.74461      4.29933      7.19968         0.025751     -0.041099      0.003688
      8.19602      0.00558      3.08181        -0.007569      0.001299     -0.004753
      8.21124      0.01485      7.18618        -0.005113      0.011296      0.004401
      5.66321      4.30486      3.01671        -0.021172     -0.003071     -0.011202
      5.70607      4.33862      7.16893        -0.016246      0.010083      0.008184
      0.87757      1.48150      3.04386         0.011007     -0.024083      0.006326
      0.85817      1.48614      7.11021        -0.006171     -0.041766      0.003157
     -1.61419      5.85366      3.08454        -0.014832     -0.003848     -0.008376
     -1.60193      5.85961      7.19694         0.013520     -0.009702      0.002615
      5.83486      1.57471      3.01566        -0.038283      0.026460     -0.027608
      5.88904      1.53650      7.18952         0.001187      0.003377      0.013366
      3.39168      5.87136      3.04004         0.008982      0.004312      0.070155
      3.39447      5.89343      7.15884        -0.014429      0.006664      0.038234
      8.37367      2.75597      3.12469        -0.002374     -0.004876     -0.017174
     -1.59493      2.79470      7.16428        -0.018482     -0.002668      0.005010
      5.89406      7.07424      3.06327        -0.051999      0.008056      0.024655
      5.88012      7.10174      7.15309        -0.022587      0.005663      0.053366
      2.95355      3.09338      2.62576         0.014557     -0.012803      0.037679
      3.35422      2.77615      7.18729         0.016019     -0.023394     -0.009112
      0.89283      7.12959      3.07503         0.011683      0.046679      0.031655
      0.90562      7.10496      7.20872        -0.007161      0.002070     -0.015099
 -----------------------------------------------------------------------------------
    total drift:                               -0.000929     -0.000354     -0.000962


--------------------------------------------------------------------------------------------------------



  FREE ENERGIE OF THE ION-ELECTRON SYSTEM (eV)
  ---------------------------------------------------
  free  energy   TOTEN  =      -442.57459713 eV

  energy  without entropy=     -442.57459713  energy(sigma->0) =     -442.57459713
 


--------------------------------------------------------------------------------------------------------


    POTLOK:  cpu time    1.2179: real time    1.2385


--------------------------------------------------------------------------------------------------------


     LOOP+:  cpu time 2964.2235: real time 2991.3853
    4ORBIT:  cpu time    0.0000: real time    0.0000
 


 total charge     
 
# of ion       s       p       d       tot
------------------------------------------
    1        2.016   0.047   0.000   2.063
    2        2.016   0.048   0.000   2.064
    3        2.015   0.047   0.000   2.062
    4        2.015   0.047   0.000   2.062
    5        2.016   0.048   0.000   2.064
    6        2.016   0.047   0.000   2.063
    7        2.017   0.050   0.000   2.067
    8        2.017   0.050   0.000   2.067
    9        0.354   6.443   4.848  11.645
   10        0.363   6.481   4.831  11.676
   11        0.368   6.491   4.849  11.707
   12        0.365   6.486   4.833  11.684
   13        0.354   6.443   4.848  11.645
   14        0.363   6.481   4.831  11.675
   15        0.366   6.488   4.837  11.691
   16        0.366   6.488   4.835  11.689
   17        0.361   6.466   4.897  11.725
   18        0.365   6.486   4.836  11.687
   19        0.366   6.489   4.841  11.696
   20        0.364   6.483   4.830  11.676
   21        0.358   6.472   4.826  11.656
   22        0.364   6.484   4.832  11.681
   23        0.366   6.489   4.842  11.697
   24        0.363   6.482   4.830  11.676
   25        1.598   3.309   0.000   4.907
   26        1.592   3.323   0.000   4.915
   27        1.593   3.326   0.000   4.919
   28        1.594   3.320   0.000   4.914
   29        1.594   3.332   0.000   4.926
   30        1.592   3.327   0.000   4.919
   31        1.593   3.327   0.000   4.920
   32        1.593   3.325   0.000   4.917
   33        1.592   3.340   0.000   4.933
   34        1.595   3.312   0.000   4.908
   35        1.592   3.333   0.000   4.925
   36        1.595   3.314   0.000   4.908
   37        1.593   3.327   0.000   4.920
   38        1.594   3.322   0.000   4.916
   39        1.593   3.337   0.000   4.931
   40        1.592   3.316   0.000   4.908
   41        1.592   3.309   0.000   4.901
   42        1.595   3.312   0.000   4.907
   43        1.593   3.333   0.000   4.926
   44        1.592   3.328   0.000   4.920
   45        1.591   3.333   0.000   4.924
   46        1.591   3.346   0.000   4.936
   47        1.592   3.328   0.000   4.921
   48        1.592   3.340   0.000   4.932
   49        1.592   3.340   0.000   4.933
   50        1.595   3.312   0.000   4.908
   51        1.593   3.337   0.000   4.930
   52        1.592   3.317   0.000   4.908
   53        1.593   3.327   0.000   4.920
   54        1.594   3.322   0.000   4.916
   55        1.592   3.333   0.000   4.925
   56        1.595   3.314   0.000   4.908
   57        1.591   3.333   0.000   4.924
   58        1.591   3.346   0.000   4.936
   59        1.593   3.333   0.000   4.926
   60        1.592   3.328   0.000   4.920
   61        1.592   3.309   0.000   4.901
   62        1.595   3.311   0.000   4.907
   63        1.592   3.328   0.000   4.921
   64        1.592   3.340   0.000   4.932
   65        1.594   3.332   0.000   4.926
   66        1.592   3.327   0.000   4.919
   67        1.593   3.326   0.000   4.920
   68        1.594   3.320   0.000   4.915
   69        1.598   3.309   0.000   4.907
   70        1.592   3.323   0.000   4.915
   71        1.593   3.327   0.000   4.920
   72        1.593   3.325   0.000   4.917
--------------------------------------------------
tot         98.401 263.674  77.447 439.522
 


 magnetization (x)
 
# of ion       s       p       d       tot
------------------------------------------
    1        0.001   0.002   0.000   0.003
    2        0.001   0.002   0.000   0.004
    3        0.001   0.002   0.000   0.003
    4        0.001   0.002   0.000   0.003
    5        0.001   0.002   0.000   0.004
    6        0.001   0.002   0.000   0.003
    7        0.001   0.002   0.000   0.003
    8        0.001   0.002   0.000   0.003
    9        0.028   0.037   3.059   3.124
   10        0.028   0.045   3.000   3.073
   11        0.027   0.044   2.950   3.021
   12        0.028   0.046   2.976   3.050
   13        0.028   0.037   3.059   3.124
   14        0.028   0.045   3.001   3.074
   15        0.027   0.045   2.973   3.046
   16        0.027   0.045   2.965   3.037
   17        0.025   0.036   2.990   3.051
   18        0.028   0.045   2.994   3.067
   19        0.027   0.044   2.956   3.028
   20        0.028   0.045   2.979   3.052
   21        0.029   0.045   3.009   3.083
   22        0.028   0.046   2.983   3.057
   23        0.027   0.044   2.955   3.027
   24        0.028   0.045   2.979   3.052
   25       -0.000  -0.127   0.000  -0.127
   26       -0.006  -0.443   0.000  -0.449
   27       -0.006  -0.433   0.000  -0.439
   28       -0.006  -0.454   0.000  -0.460
   29       -0.005  -0.404   0.000  -0.409
   30       -0.006  -0.435   0.000  -0.441
   31       -0.006  -0.439   0.000  -0.445
   32       -0.006  -0.438   0.000  -0.444
   33       -0.005  -0.357   0.000  -0.363
   34       -0.006  -0.481   0.000  -0.487
   35       -0.005  -0.392   0.000  -0.397
   36       -0.008  -0.475   0.000  -0.482
   37       -0.006  -0.430   0.000  -0.436
   38       -0.006  -0.450   0.000  -0.456
   39       -0.008  -0.410   0.000  -0.418
   40       -0.006  -0.462   0.000  -0.468
   41       -0.006  -0.466   0.000  -0.472
   42       -0.006  -0.485   0.000  -0.491
   43       -0.006  -0.412   0.000  -0.418
   44       -0.006  -0.434   0.000  -0.440
   45       -0.006  -0.427   0.000  -0.432
   46       -0.004  -0.389   0.000  -0.393
   47       -0.006  -0.433   0.000  -0.440
   48       -0.006  -0.420   0.000  -0.426
   49       -0.005  -0.357   0.000  -0.362
   50       -0.006  -0.481   0.000  -0.487
   51       -0.008  -0.411   0.000  -0.418
   52       -0.006  -0.462   0.000  -0.468
   53       -0.006  -0.430   0.000  -0.436
   54       -0.006  -0.450   0.000  -0.456
   55       -0.005  -0.392   0.000  -0.397
   56       -0.008  -0.475   0.000  -0.483
   57       -0.006  -0.427   0.000  -0.432
   58       -0.004  -0.389   0.000  -0.393
   59       -0.006  -0.412   0.000  -0.418
   60       -0.006  -0.434   0.000  -0.441
   61       -0.006  -0.466   0.000  -0.472
   62       -0.006  -0.485   0.000  -0.491
   63       -0.006  -0.433   0.000  -0.440
   64       -0.006  -0.420   0.000  -0.426
   65       -0.005  -0.404   0.000  -0.409
   66       -0.006  -0.435   0.000  -0.441
   67       -0.006  -0.433   0.000  -0.439
   68       -0.006  -0.454   0.000  -0.460
   69       -0.000  -0.127   0.000  -0.127
   70       -0.006  -0.443   0.000  -0.449
   71       -0.006  -0.439   0.000  -0.445
   72       -0.006  -0.438   0.000  -0.444
--------------------------------------------------
tot          0.170 -19.479  47.830  28.521
 
 BZINTS: Fermi energy:  2.505806;520.000000 electrons
         Band energy:***********;  BLOECHL correction: -0.002118

 total amount of memory used by VASP MPI-rank0   254385. kBytes
=======================================================================

   base      :      30000. kBytes
   nonlr-proj:      37580. kBytes
   fftplans  :       5472. kBytes
   grid      :      41200. kBytes
   one-center:       2239. kBytes
   wavefun   :     137894. kBytes
 
  
  
 General timing and accounting informations for this job:
 ========================================================
  
                  Total CPU time used (sec):     3039.135
                            User time (sec):     2998.989
                          System time (sec):       40.146
                         Elapsed time (sec):     3067.237
  
                   Maximum memory used (kb):      385716.
                   Average memory used (kb):           0.
  
                          Minor page faults:       744133
                          Major page faults:            0
                 Voluntary context switches:         2061
