 vasp.5.4.4.18Apr17-6-g9f103f2a35 (build Dec 07 2017 12:23:07) complex          
  
 executed on     UA-Leibniz-2016b date 2018.10.26  22:46:05
 running on   28 total cores
 distrk:  each k-point on   28 cores,    1 groups
 distr:  one band on NCORES_PER_BAND=   1 cores,   28 groups


--------------------------------------------------------------------------------------------------------


 INCAR:
 POTCAR:    PAW_PBE Li_sv 10Sep2004               
 POTCAR:    PAW_PBE Mn_pv 02Aug2007               
 POTCAR:    PAW_PBE O 08Apr2002                   

 ----------------------------------------------------------------------------- 
|                                                                             |
|           W    W    AA    RRRRR   N    N  II  N    N   GGGG   !!!           |
|           W    W   A  A   R    R  NN   N  II  NN   N  G    G  !!!           |
|           W    W  A    A  R    R  N N  N  II  N N  N  G       !!!           |
|           W WW W  AAAAAA  RRRRR   N  N N  II  N  N N  G  GGG   !            |
|           WW  WW  A    A  R   R   N   NN  II  N   NN  G    G                |
|           W    W  A    A  R    R  N    N  II  N    N   GGGG   !!!           |
|                                                                             |
|      For optimal performance we recommend to set                            |
|        NCORE= 4 - approx SQRT( number of cores)                             |
|      NCORE specifies how many cores store one orbital (NPAR=cpu/NCORE).     |
|      This setting can  greatly improve the performance of VASP for DFT.     |
|      The default,   NCORE=1            might be grossly inefficient         |
|      on modern multi-core architectures or massively parallel machines.     |
|      Do your own testing !!!!                                               |
|      Unfortunately you need to use the default for GW and RPA calculations. |
|      (for HF NCORE is supported but not extensively tested yet)             |
|                                                                             |
 ----------------------------------------------------------------------------- 

 POTCAR:    PAW_PBE Li_sv 10Sep2004               
   VRHFIN =Li: 1s2s2p                                                           
   LEXCH  = PE                                                                  
   EATOM  =   202.7858 eV,   14.9043 Ry                                         
                                                                                
   TITEL  = PAW_PBE Li_sv 10Sep2004                                             
   LULTRA =        F    use ultrasoft PP ?                                      
   IUNSCR =        0    unscreen: 0-lin 1-nonlin 2-no                           
   RPACOR =    0.000    partial core radius                                     
   POMASS =    7.010; ZVAL   =    3.000    mass and valenz                      
   RCORE  =    1.700    outmost cutoff radius                                   
   RWIGS  =    2.050; RWIGS  =    1.085    wigner-seitz radius (au A)           
   ENMAX  =  499.034; ENMIN  =  374.276 eV                                      
   ICORE  =        2    local potential                                         
   LCOR   =        T    correct aug charges                                     
   LPAW   =        T    paw PP                                                  
   EAUG   =  628.945                                                            
   RMAX   =    1.732    core radius for proj-oper                               
   RAUG   =    1.300    factor for augmentation sphere                          
   RDEP   =    1.728    radius for radial grids                                 
   RDEPT  =    1.329    core radius for aug-charge                              
                                                                                
   Atomic configuration                                                         
    4 entries                                                                   
     n  l   j            E        occ.                                          
     1  0  0.50       -51.8549   2.0000                                         
     2  0  0.50        -2.8742   1.0000                                         
     2  1  0.50        -1.3606   0.0000                                         
     3  2  1.50        -1.3606   0.0000                                         
   Description                                                                  
     l       E           TYP  RCUT    TYP  RCUT                                 
     0    -51.8548813     23  1.400                                             
     0     -2.8742052     23  1.700                                             
     1     -1.3605826     23  1.400                                             
     2     -1.3605826     23  1.400                                             
  local pseudopotential read in
  atomic valenz-charges read in
  non local Contribution for L=           0  read in
    real space projection operators read in
  non local Contribution for L=           0  read in
    real space projection operators read in
  non local Contribution for L=           1  read in
    real space projection operators read in
    PAW grid and wavefunctions read in
 
   number of l-projection  operators is LMAX  =           3
   number of lm-projection operators is LMMAX =           5
 
 POTCAR:    PAW_PBE Mn_pv 02Aug2007               
   VRHFIN =Mn: 3p4s3d                                                           
   LEXCH  = PE                                                                  
   EATOM  =  2025.2664 eV,  148.8529 Ry                                         
                                                                                
   TITEL  = PAW_PBE Mn_pv 02Aug2007                                             
   LULTRA =        F    use ultrasoft PP ?                                      
   IUNSCR =        1    unscreen: 0-lin 1-nonlin 2-no                           
   RPACOR =    2.080    partial core radius                                     
   POMASS =   54.938; ZVAL   =   13.000    mass and valenz                      
   RCORE  =    2.300    outmost cutoff radius                                   
   RWIGS  =    2.500; RWIGS  =    1.323    wigner-seitz radius (au A)           
   ENMAX  =  269.864; ENMIN  =  202.398 eV                                      
   ICORE  =        3    local potential                                         
   LCOR   =        T    correct aug charges                                     
   LPAW   =        T    paw PP                                                  
   EAUG   =  569.085                                                            
   DEXC   =    0.000                                                            
   RMAX   =    2.343    core radius for proj-oper                               
   RAUG   =    1.300    factor for augmentation sphere                          
   RDEP   =    2.338    radius for radial grids                                 
   RDEPT  =    1.798    core radius for aug-charge                              
                                                                                
   Atomic configuration                                                         
    8 entries                                                                   
     n  l   j            E        occ.                                          
     1  0  0.50     -6424.8287   2.0000                                         
     2  0  0.50      -739.1154   2.0000                                         
     2  1  1.50      -625.3949   6.0000                                         
     3  0  0.50       -81.6100   2.0000                                         
     3  1  1.50       -50.4667   6.0000                                         
     3  2  2.50        -3.3745   6.0000                                         
     4  0  0.50        -4.1331   1.0000                                         
     4  3  2.50        -1.3606   0.0000                                         
   Description                                                                  
     l       E           TYP  RCUT    TYP  RCUT                                 
     1    -50.4666628     23  2.000                                             
     1     -1.3605826     23  2.000                                             
     2     -3.3744729     23  2.300                                             
     2     -4.7350555     23  2.300                                             
     0     -4.1331431     23  2.300                                             
     0      7.6656591     23  2.300                                             
     3      9.5240782     23  2.300                                             
  local pseudopotential read in
  partial core-charges read in
  partial kinetic energy density read in
  atomic valenz-charges read in
  non local Contribution for L=           1  read in
    real space projection operators read in
  non local Contribution for L=           1  read in
    real space projection operators read in
  non local Contribution for L=           2  read in
    real space projection operators read in
  non local Contribution for L=           2  read in
    real space projection operators read in
  non local Contribution for L=           0  read in
    real space projection operators read in
  non local Contribution for L=           0  read in
    real space projection operators read in
    PAW grid and wavefunctions read in
 
   number of l-projection  operators is LMAX  =           6
   number of lm-projection operators is LMMAX =          18
 
 POTCAR:    PAW_PBE O 08Apr2002                   
   VRHFIN =O: s2p4                                                              
   LEXCH  = PE                                                                  
   EATOM  =   432.3788 eV,   31.7789 Ry                                         
                                                                                
   TITEL  = PAW_PBE O 08Apr2002                                                 
   LULTRA =        F    use ultrasoft PP ?                                      
   IUNSCR =        1    unscreen: 0-lin 1-nonlin 2-no                           
   RPACOR =    1.200    partial core radius                                     
   POMASS =   16.000; ZVAL   =    6.000    mass and valenz                      
   RCORE  =    1.520    outmost cutoff radius                                   
   RWIGS  =    1.550; RWIGS  =    0.820    wigner-seitz radius (au A)           
   ENMAX  =  400.000; ENMIN  =  300.000 eV                                      
   ICORE  =        2    local potential                                         
   LCOR   =        T    correct aug charges                                     
   LPAW   =        T    paw PP                                                  
   EAUG   =  605.392                                                            
   DEXC   =    0.000                                                            
   RMAX   =    1.553    core radius for proj-oper                               
   RAUG   =    1.300    factor for augmentation sphere                          
   RDEP   =    1.550    radius for radial grids                                 
   RDEPT  =    1.329    core radius for aug-charge                              
                                                                                
   Atomic configuration                                                         
    4 entries                                                                   
     n  l   j            E        occ.                                          
     1  0  0.50      -514.6923   2.0000                                         
     2  0  0.50       -23.9615   2.0000                                         
     2  1  0.50        -9.0305   4.0000                                         
     3  2  1.50        -9.5241   0.0000                                         
   Description                                                                  
     l       E           TYP  RCUT    TYP  RCUT                                 
     0    -23.9615318     23  1.200                                             
     0     -9.5240782     23  1.200                                             
     1     -9.0304911     23  1.520                                             
     1      8.1634956     23  1.520                                             
     2     -9.5240782      7  1.500                                             
  local pseudopotential read in
  partial core-charges read in
  partial kinetic energy density read in
  kinetic energy density of atom read in
  atomic valenz-charges read in
  non local Contribution for L=           0  read in
    real space projection operators read in
  non local Contribution for L=           0  read in
    real space projection operators read in
  non local Contribution for L=           1  read in
    real space projection operators read in
  non local Contribution for L=           1  read in
    real space projection operators read in
    PAW grid and wavefunctions read in
 
   number of l-projection  operators is LMAX  =           4
   number of lm-projection operators is LMMAX =           8
 
 Optimization of the real space projectors (new method)

 maximal supplied QI-value         = 22.11
 optimisation between [QCUT,QGAM] = [ 11.28, 22.77] = [ 35.61,145.23] Ry 
 Optimized for a Real-space Cutoff    1.10 Angstroem

   l    n(q)    QCUT    max X(q) W(low)/X(q) W(high)/X(q)  e(spline) 
   0      7    11.276    10.506    0.54E-04    0.58E-04    0.16E-07
   0      7    11.276     8.367    0.11E-03    0.14E-03    0.35E-07
   1      7    11.276     8.983    0.23E-03    0.43E-03    0.86E-07
 Optimization of the real space projectors (new method)

 maximal supplied QI-value         = 16.25
 optimisation between [QCUT,QGAM] = [ 11.38, 22.75] = [ 36.24,144.96] Ry 
 Optimized for a Real-space Cutoff    1.47 Angstroem

   l    n(q)    QCUT    max X(q) W(low)/X(q) W(high)/X(q)  e(spline) 
   1     10    11.376     3.658    0.62E-04    0.11E-03    0.11E-06
   1     10    11.376     5.612    0.12E-03    0.20E-03    0.19E-06
   2      9    11.376    55.373    0.10E-03    0.85E-04    0.19E-06
   2      9    11.376    50.863    0.11E-03    0.88E-04    0.19E-06
   0     10    11.376    79.536    0.52E-04    0.21E-04    0.79E-07
   0     10    11.376    38.668    0.45E-04    0.19E-04    0.74E-07
 Optimization of the real space projectors (new method)

 maximal supplied QI-value         = 24.76
 optimisation between [QCUT,QGAM] = [ 11.39, 22.77] = [ 36.31,145.25] Ry 
 Optimized for a Real-space Cutoff    1.10 Angstroem

   l    n(q)    QCUT    max X(q) W(low)/X(q) W(high)/X(q)  e(spline) 
   0      7    11.387    20.381    0.22E-03    0.48E-03    0.18E-06
   0      7    11.387    15.268    0.22E-03    0.52E-03    0.19E-06
   1      7    11.387     5.964    0.22E-03    0.73E-03    0.24E-06
   1      7    11.387     5.382    0.19E-03    0.60E-03    0.21E-06
  PAW_PBE Li_sv 10Sep2004               :
 energy of atom  1       EATOM= -202.7858
 kinetic energy error for atom=    0.0143 (will be added to EATOM!!)
  PAW_PBE Mn_pv 02Aug2007               :
 energy of atom  2       EATOM=-2025.2664
 kinetic energy error for atom=    0.0062 (will be added to EATOM!!)
  PAW_PBE O 08Apr2002                   :
 energy of atom  3       EATOM= -432.3788
 kinetic energy error for atom=    0.0224 (will be added to EATOM!!)
 
 
 POSCAR: Li8 Mn16 O48                            
  positions in direct lattice
  No initial velocities read in
 exchange correlation table for  LEXCH =        8
   RHO(1)=    0.500       N(1)  =     2000
   RHO(2)=  100.500       N(2)  =     4000
 


--------------------------------------------------------------------------------------------------------


 ion  position               nearest neighbor table
   1  0.000  0.000  0.000-  41 2.07  68 2.07  54 2.07  33 2.07  58 2.07  31 2.07
   2  0.000  0.000  0.500-  42 2.07  67 2.07  53 2.07  34 2.07  57 2.07  32 2.07
   3  0.000  0.500  0.000-  43 2.07  66 2.07  56 2.07  35 2.07  60 2.07  29 2.07
   4  0.000  0.500  0.500-  44 2.07  65 2.07  55 2.07  36 2.07  59 2.07  30 2.07
   5  0.500  0.000  0.000-  45 2.07  72 2.07  50 2.07  37 2.07  62 2.07  27 2.07
   6  0.500  0.000  0.500-  46 2.07  71 2.07  49 2.07  38 2.07  61 2.07  28 2.07
   7  0.500  0.500  0.000-  47 2.07  70 2.07  52 2.07  39 2.07  64 2.07  25 2.07
   8  0.500  0.500  0.500-  48 2.07  69 2.07  51 2.07  40 2.07  63 2.07  26 2.07
   9  0.167  0.333  0.250-  25 1.90  41 1.90  35 1.90  57 1.90  51 1.90  65 1.90  17 2.89  19 2.89
                            21 2.89
  10  0.167  0.333  0.750-  26 1.90  42 1.90  36 1.90  58 1.90  52 1.90  66 1.90  18 2.89  20 2.89
                            22 2.89
  11  0.167  0.833  0.250-  27 1.90  43 1.90  33 1.90  59 1.90  49 1.90  67 1.90  19 2.89  17 2.89
                            23 2.89
  12  0.167  0.833  0.750-  28 1.90  44 1.90  34 1.90  60 1.90  50 1.90  68 1.90  20 2.89  18 2.89
                            24 2.89
  13  0.667  0.333  0.250-  29 1.90  45 1.90  39 1.90  61 1.90  55 1.90  69 1.90  21 2.89  23 2.89
                            17 2.89
  14  0.667  0.333  0.750-  30 1.90  46 1.90  40 1.90  62 1.90  56 1.90  70 1.90  22 2.89  24 2.89
                            18 2.89
  15  0.667  0.833  0.250-  31 1.90  47 1.90  37 1.90  63 1.90  53 1.90  71 1.90  23 2.89  21 2.89
                            19 2.89
  16  0.667  0.833  0.750-  32 1.90  48 1.90  38 1.90  64 1.90  54 1.90  72 1.90  24 2.89  22 2.89
                            20 2.89
  17  0.333  0.167  0.250-  57 1.90  69 1.90  49 1.90  25 1.90  33 1.90  45 1.90   9 2.89  11 2.89
                            13 2.89
  18  0.333  0.167  0.750-  58 1.90  70 1.90  50 1.90  26 1.90  34 1.90  46 1.90  10 2.89  12 2.89
                            14 2.89
  19  0.333  0.667  0.250-  59 1.90  71 1.90  51 1.90  27 1.90  35 1.90  47 1.90  11 2.89   9 2.89
                            15 2.89
  20  0.333  0.667  0.750-  60 1.90  72 1.90  52 1.90  28 1.90  36 1.90  48 1.90  12 2.89  10 2.89
                            16 2.89
  21  0.833  0.167  0.250-  61 1.90  65 1.90  53 1.90  29 1.90  37 1.90  41 1.90  13 2.89  15 2.89
                             9 2.89
  22  0.833  0.167  0.750-  62 1.90  66 1.90  54 1.90  30 1.90  38 1.90  42 1.90  14 2.89  16 2.89
                            10 2.89
  23  0.833  0.667  0.250-  63 1.90  67 1.90  55 1.90  31 1.90  39 1.90  43 1.90  15 2.89  13 2.89
                            11 2.89
  24  0.833  0.667  0.750-  64 1.90  68 1.90  56 1.90  32 1.90  40 1.90  44 1.90  16 2.89  14 2.89
                            12 2.89
  25  0.321  0.321  0.127-   9 1.90  17 1.90   7 2.07
  26  0.321  0.321  0.627-  10 1.90  18 1.90   8 2.07
  27  0.321  0.821  0.127-  11 1.90  19 1.90   5 2.07
  28  0.321  0.821  0.627-  12 1.90  20 1.90   6 2.07
  29  0.821  0.321  0.127-  13 1.90  21 1.90   3 2.07
  30  0.821  0.321  0.627-  14 1.90  22 1.90   4 2.07
  31  0.821  0.821  0.127-  15 1.90  23 1.90   1 2.07
  32  0.821  0.821  0.627-  16 1.90  24 1.90   2 2.07
  33  0.179  0.000  0.127-  11 1.90  17 1.90   1 2.07
  34  0.179  0.000  0.627-  12 1.90  18 1.90   2 2.07
  35  0.179  0.500  0.127-   9 1.90  19 1.90   3 2.07
  36  0.179  0.500  0.627-  10 1.90  20 1.90   4 2.07
  37  0.679  0.000  0.127-  15 1.90  21 1.90   5 2.07
  38  0.679  0.000  0.627-  16 1.90  22 1.90   6 2.07
  39  0.679  0.500  0.127-  13 1.90  23 1.90   7 2.07
  40  0.679  0.500  0.627-  14 1.90  24 1.90   8 2.07
  41  0.000  0.179  0.127-   9 1.90  21 1.90   1 2.07
  42  0.000  0.179  0.627-  10 1.90  22 1.90   2 2.07
  43  0.000  0.679  0.127-  11 1.90  23 1.90   3 2.07
  44  0.000  0.679  0.627-  12 1.90  24 1.90   4 2.07
  45  0.500  0.179  0.127-  13 1.90  17 1.90   5 2.07
  46  0.500  0.179  0.627-  14 1.90  18 1.90   6 2.07
  47  0.500  0.679  0.127-  15 1.90  19 1.90   7 2.07
  48  0.500  0.679  0.627-  16 1.90  20 1.90   8 2.07
  49  0.321  0.000  0.373-  17 1.90  11 1.90   6 2.07
  50  0.321  0.000  0.873-  18 1.90  12 1.90   5 2.07
  51  0.321  0.500  0.373-  19 1.90   9 1.90   8 2.07
  52  0.321  0.500  0.873-  20 1.90  10 1.90   7 2.07
  53  0.821  0.000  0.373-  21 1.90  15 1.90   2 2.07
  54  0.821  0.000  0.873-  22 1.90  16 1.90   1 2.07
  55  0.821  0.500  0.373-  23 1.90  13 1.90   4 2.07
  56  0.821  0.500  0.873-  24 1.90  14 1.90   3 2.07
  57  0.179  0.179  0.373-  17 1.90   9 1.90   2 2.07
  58  0.179  0.179  0.873-  18 1.90  10 1.90   1 2.07
  59  0.179  0.679  0.373-  19 1.90  11 1.90   4 2.07
  60  0.179  0.679  0.873-  20 1.90  12 1.90   3 2.07
  61  0.679  0.179  0.373-  21 1.90  13 1.90   6 2.07
  62  0.679  0.179  0.873-  22 1.90  14 1.90   5 2.07
  63  0.679  0.679  0.373-  23 1.90  15 1.90   8 2.07
  64  0.679  0.679  0.873-  24 1.90  16 1.90   7 2.07
  65  0.000  0.321  0.373-  21 1.90   9 1.90   4 2.07
  66  0.000  0.321  0.873-  22 1.90  10 1.90   3 2.07
  67  0.000  0.821  0.373-  23 1.90  11 1.90   2 2.07
  68  0.000  0.821  0.873-  24 1.90  12 1.90   1 2.07
  69  0.500  0.321  0.373-  17 1.90  13 1.90   8 2.07
  70  0.500  0.321  0.873-  18 1.90  14 1.90   7 2.07
  71  0.500  0.821  0.373-  19 1.90  15 1.90   6 2.07
  72  0.500  0.821  0.873-  20 1.90  16 1.90   5 2.07
 
  LATTYP: Found a hexagonal cell.
 ALAT       =     9.9963163228
 C/A-ratio  =     0.8228598387
  
  Lattice vectors:
  
 A1 = (   9.9963160000,   0.0000090000,   0.0017840000)
 A2 = (  -4.9981650000,   8.6570590000,  -0.0022840000)
 A3 = (  -0.0014680000,   0.0013220000,   8.2255670000)


Analysis of symmetry for initial positions (statically):
=====================================================================
 Subroutine PRICEL returns following result:
 
  LATTYP: Found a hexagonal cell.
 ALAT       =     4.9981581614
 C/A-ratio  =     0.8228598387
  
  Lattice vectors:
  
 A1 = (   4.9981580000,   0.0000045000,   0.0008920000)
 A2 = (  -2.4990825000,   4.3285295000,  -0.0011420000)
 A3 = (  -0.0007340000,   0.0006610000,   4.1127835000)
 
   8 primitive cells build up your supercell.
 

 Routine SETGRP: Setting up the symmetry group for a 
 hexagonal supercell.


 Subroutine GETGRP returns: Found 12 space group operations
 (whereof 12 operations were pure point group operations)
 out of a pool of 24 trial point group operations.


The static configuration has the point symmetry D_3d.


Analysis of symmetry for dynamics (positions and initial velocities):
=====================================================================
 Subroutine PRICEL returns following result:
 
  LATTYP: Found a hexagonal cell.
 ALAT       =     4.9981581614
 C/A-ratio  =     0.8228598387
  
  Lattice vectors:
  
 A1 = (   4.9981580000,   0.0000045000,   0.0008920000)
 A2 = (  -2.4990825000,   4.3285295000,  -0.0011420000)
 A3 = (  -0.0007340000,   0.0006610000,   4.1127835000)
 
   8 primitive cells build up your supercell.
 

 Routine SETGRP: Setting up the symmetry group for a 
 hexagonal supercell.


 Subroutine GETGRP returns: Found 12 space group operations
 (whereof 12 operations were pure point group operations)
 out of a pool of 24 trial point group operations.


The dynamic configuration has the point symmetry D_3d.


Analysis of structural, dynamic, and magnetic symmetry:
=====================================================================
 Subroutine PRICEL returns following result:
 
  LATTYP: Found a hexagonal cell.
 ALAT       =     4.9981581614
 C/A-ratio  =     0.8228598387
  
  Lattice vectors:
  
 A1 = (   4.9981580000,   0.0000045000,   0.0008920000)
 A2 = (  -2.4990825000,   4.3285295000,  -0.0011420000)
 A3 = (  -0.0007340000,   0.0006610000,   4.1127835000)
 
   8 primitive cells build up your supercell.
 

 Routine SETGRP: Setting up the symmetry group for a 
 hexagonal supercell.


 Subroutine GETGRP returns: Found  2 space group operations
 (whereof  2 operations were pure point group operations)
 out of a pool of 24 trial point group operations.


The magnetic configuration has the point symmetry S_2 .


 Subroutine INISYM returns: Found  2 space group operations
 (whereof  2 operations are pure point group operations),
 and found     8 'primitive' translations

 
 
 KPOINTS: pymatgen 4.7.6+ generated KPOINTS with g

Automatic generation of k-mesh.
Space group operators:
 irot       det(A)        alpha          n_x          n_y          n_z        tau_x        tau_y        tau_z
    1     1.000000     0.000001     1.000000     0.000000     0.000000     0.000000     0.000000     0.000000
    2    -1.000000     0.000001     1.000000     0.000000     0.000000     0.000000     0.000000     0.000000
 
 Subroutine IBZKPT returns following result:
 ===========================================
 
 Found     19 irreducible k-points:
 
 Following reciprocal coordinates:
            Coordinates               Weight
  0.000000  0.000000  0.000000      1.000000
  0.333333 -0.000000 -0.000000      2.000000
 -0.000000  0.333333  0.000000      2.000000
  0.333333  0.333333  0.000000      2.000000
 -0.333333  0.333333  0.000000      2.000000
 -0.000000 -0.000000  0.250000      2.000000
  0.333333 -0.000000  0.250000      2.000000
 -0.333333  0.000000  0.250000      2.000000
 -0.000000  0.333333  0.250000      2.000000
  0.333333  0.333333  0.250000      2.000000
 -0.333333  0.333333  0.250000      2.000000
 -0.000000 -0.333333  0.250000      2.000000
  0.333333 -0.333333  0.250000      2.000000
 -0.333333 -0.333333  0.250000      2.000000
 -0.000000 -0.000000  0.500000      1.000000
  0.333333 -0.000000  0.500000      2.000000
 -0.000000  0.333333  0.500000      2.000000
  0.333333  0.333333  0.500000      2.000000
 -0.333333  0.333333  0.500000      2.000000
 
 Following cartesian coordinates:
            Coordinates               Weight
  0.000000  0.000000  0.000000      1.000000
  0.033346  0.019252  0.000003      2.000000
 -0.000000  0.038504 -0.000006      2.000000
  0.033346  0.057756 -0.000003      2.000000
 -0.033346  0.019252 -0.000009      2.000000
 -0.000005  0.000005  0.030393      2.000000
  0.033340  0.019257  0.030396      2.000000
 -0.033351 -0.019247  0.030390      2.000000
 -0.000005  0.038509  0.030387      2.000000
  0.033340  0.057761  0.030390      2.000000
 -0.033351  0.019257  0.030384      2.000000
 -0.000005 -0.038499  0.030399      2.000000
  0.033340 -0.019247  0.030402      2.000000
 -0.033351 -0.057751  0.030396      2.000000
 -0.000011  0.000010  0.060786      1.000000
  0.033335  0.019262  0.060789      2.000000
 -0.000011  0.038514  0.060780      2.000000
  0.033335  0.057766  0.060783      2.000000
 -0.033356  0.019262  0.060777      2.000000
 
 TETIRR: Found    106 inequivalent tetrahedra from      216


--------------------------------------------------------------------------------------------------------




 Dimension of arrays:
   k-points           NKPTS =     19   k-points in BZ     NKDIM =     19   number of bands    NBANDS=    336
   number of dos      NEDOS =    301   number of ions     NIONS =     72
   non local maximal  LDIM  =      6   non local SUM 2l+1 LMDIM =     18
   total plane-waves  NPLWV = 384000
   max r-space proj   IRMAX =   7292   max aug-charges    IRDMAX=  16566
   dimension x,y,z NGX =    80 NGY =   80 NGZ =   60
   dimension x,y,z NGXF=   160 NGYF=  160 NGZF=  120
   support grid    NGXF=   160 NGYF=  160 NGZF=  120
   ions per type =               8  16  48
   NGX,Y,Z   is equivalent  to a cutoff of  13.30, 13.30, 12.13 a.u.
   NGXF,Y,Z  is equivalent  to a cutoff of  26.61, 26.61, 24.25 a.u.

 SYSTEM =  unknown system                          
 POSCAR =  Li8 Mn16 O48                            

 Startparameter for this run:
   NWRITE =      2    write-flag & timer
   PREC   = accura    normal or accurate (medium, high low for compatibility)
   ISTART =      0    job   : 0-new  1-cont  2-samecut
   ICHARG =      2    charge: 1-file 2-atom 10-const
   ISPIN  =      2    spin polarized calculation?
   LNONCOLLINEAR =      F non collinear calculations
   LSORBIT =      F    spin-orbit coupling
   INIWAV =      1    electr: 0-lowe 1-rand  2-diag
   LASPH  =      T    aspherical Exc in radial PAW
   METAGGA=      F    non-selfconsistent MetaGGA calc.

 Electronic Relaxation 1
   ENCUT  =  500.0 eV  36.75 Ry    6.06 a.u.  18.23 18.23 15.00*2*pi/ulx,y,z
   ENINI  =  500.0     initial cutoff
   ENAUG  =  628.9 eV  augmentation charge cutoff
   NELM   =    100;   NELMIN=  4; NELMDL= -5     # of ELM steps 
   EDIFF  = 0.1E-05   stopping-criterion for ELM
   LREAL  =      T    real-space projection
   NLSPLINE    = F    spline interpolate recip. space projectors
   LCOMPAT=      F    compatible to vasp.4.4
   GGA_COMPAT  = T    GGA compatible to vasp.4.4-vasp.4.6
   LMAXPAW     = -100 max onsite density
   LMAXMIX     =    4 max onsite mixed and CHGCAR
   VOSKOWN=      0    Vosko Wilk Nusair interpolation
   ROPT   =   -0.00025  -0.00025  -0.00025
 Ionic relaxation
   EDIFFG = 0.1E-04   stopping-criterion for IOM
   NSW    =      0    number of steps for IOM
   NBLOCK =      1;   KBLOCK =      1    inner block; outer block 
   IBRION =     -1    ionic relax: 0-MD 1-quasi-New 2-CG
   NFREE  =      0    steps in history (QN), initial steepest desc. (CG)
   ISIF   =      2    stress and relaxation
   IWAVPR =     10    prediction:  0-non 1-charg 2-wave 3-comb
   ISYM   =      2    0-nonsym 1-usesym 2-fastsym
   LCORR  =      T    Harris-Foulkes like correction to forces

   POTIM  = 0.5000    time-step for ionic-motion
   TEIN   =    0.0    initial temperature
   TEBEG  =    0.0;   TEEND  =   0.0 temperature during run
   SMASS  =  -3.00    Nose mass-parameter (am)
   estimated Nose-frequenzy (Omega)   =  0.10E-29 period in steps =****** mass=  -0.228E-26a.u.
   SCALEE = 1.0000    scale energy and forces
   NPACO  =    256;   APACO  = 16.0  distance and # of slots for P.C.
   PSTRESS=    0.0 pullay stress

  Mass of Ions in am
   POMASS =   7.01 54.94 16.00
  Ionic Valenz
   ZVAL   =   3.00 13.00  6.00
  Atomic Wigner-Seitz radii
   RWIGS  =  -1.00 -1.00 -1.00
  virtual crystal weights 
   VCA    =   1.00  1.00  1.00
   NELECT =     520.0000    total number of electrons
   NUPDOWN=      -1.0000    fix difference up-down

 DOS related values:
   EMIN   =  10.00;   EMAX   =-10.00  energy-range for DOS
   EFERMI =   0.00
   ISMEAR =    -5;   SIGMA  =   0.20  broadening in eV -4-tet -1-fermi 0-gaus

 Electronic relaxation 2 (details)
   IALGO  =     38    algorithm
   LDIAG  =      T    sub-space diagonalisation (order eigenvalues)
   LSUBROT=      F    optimize rotation matrix (better conditioning)
   TURBO    =      0    0=normal 1=particle mesh
   IRESTART =      0    0=no restart 2=restart with 2 vectors
   NREBOOT  =      0    no. of reboots
   NMIN     =      0    reboot dimension
   EREF     =   0.00    reference energy to select bands
   IMIX   =      4    mixing-type and parameters
     AMIX     =   0.40;   BMIX     =  1.00
     AMIX_MAG =   1.60;   BMIX_MAG =  1.00
     AMIN     =   0.10
     WC   =   100.;   INIMIX=   1;  MIXPRE=   1;  MAXMIX= -45

 Intra band minimization:
   WEIMIN = 0.0000     energy-eigenvalue tresh-hold
   EBREAK =  0.74E-09  absolut break condition
   DEPER  =   0.30     relativ break condition  

   TIME   =   0.40     timestep for ELM

  volume/ion in A,a.u.               =       9.89        66.72
  Fermi-wavevector in a.u.,A,eV,Ry     =   1.474406  2.786224 29.577344  2.173873
  Thomas-Fermi vector in A             =   2.589181
 
 Write flags
   LWAVE        =      F    write WAVECAR
   LDOWNSAMPLE  =      F    k-point downsampling of WAVECAR
   LCHARG       =      F    write CHGCAR
   LVTOT        =      F    write LOCPOT, total local potential
   LVHAR        =      F    write LOCPOT, Hartree potential only
   LELF         =      F    write electronic localiz. function (ELF)
   LORBIT       =     11    0 simple, 1 ext, 2 COOP (PROOUT), +10 PAW based schemes


 Dipole corrections
   LMONO  =      F    monopole corrections only (constant potential shift)
   LDIPOL =      F    correct potential (dipole corrections)
   IDIPOL =      0    1-x, 2-y, 3-z, 4-all directions 
   EPSILON=  1.0000000 bulk dielectric constant

 LDA+U is selected, type is set to LDAUTYPE =  2
   angular momentum for each species LDAUL =     0    2    0
   U (eV)           for each species LDAUU =   0.0  3.9  0.0
   J (eV)           for each species LDAUJ =   0.0  0.0  0.0
 Exchange correlation treatment:
   GGA     =    --    GGA type
   LEXCH   =     8    internal setting for exchange type
   VOSKOWN=      0    Vosko Wilk Nusair interpolation
   LHFCALC =     F    Hartree Fock is set to
   LHFONE  =     F    Hartree Fock one center treatment
   AEXX    =    0.0000 exact exchange contribution

 Linear response parameters
   LEPSILON=     F    determine dielectric tensor
   LRPA    =     F    only Hartree local field effects (RPA)
   LNABLA  =     F    use nabla operator in PAW spheres
   LVEL    =     F    velocity operator in full k-point grid
   LINTERFAST=   F  fast interpolation
   KINTER  =     0    interpolate to denser k-point grid
   CSHIFT  =0.1000    complex shift for real part using Kramers Kronig
   OMEGAMAX=  -1.0    maximum frequency
   DEG_THRESHOLD= 0.2000000E-02 threshold for treating states as degnerate
   RTIME   =   -0.100 relaxation time in fs
  (WPLASMAI=    0.000 imaginary part of plasma frequency in eV, 0.658/RTIME)
   DFIELD  = 0.0000000 0.0000000 0.0000000 field for delta impulse in time
 
 Orbital magnetization related:
   ORBITALMAG=     F  switch on orbital magnetization
   LCHIMAG   =     F  perturbation theory with respect to B field
   DQ        =  0.001000  dq finite difference perturbation B field
   LLRAUG    =     F  two centre corrections for induced B field



--------------------------------------------------------------------------------------------------------


 Static calculation
 charge density and potential will be updated during run
 spin polarized calculation
 Variant of blocked Davidson
 Davidson routine will perform the subspace rotation
 perform sub-space diagonalisation
    after iterative eigenvector-optimisation
 modified Broyden-mixing scheme, WC =      100.0
 initial mixing is a Kerker type mixing with AMIX =  0.4000 and BMIX =      1.0000
 Hartree-type preconditioning will be used
 using additional bands           76
 real space projection scheme for non local part
 use partial core corrections
 calculate Harris-corrections to forces 
   (improved forces if not selfconsistent)
 use gradient corrections 
 use of overlap-Matrix (Vanderbilt PP)
 Fermi weights with tetrahedron method with Bloechl corrections


--------------------------------------------------------------------------------------------------------


  energy-cutoff  :      500.00
  volume of cell :      711.83
      direct lattice vectors                 reciprocal lattice vectors
     9.996316000  0.000009000  0.001784000     0.100036800  0.057756387  0.000008571
    -4.998165000  8.657059000 -0.002284000    -0.000000101  0.115512607 -0.000018565
    -0.001468000  0.001322000  8.225567000    -0.000021696  0.000019548  0.121572159

  length of vectors
     9.996316159  9.996315777  8.225567237     0.115512604  0.115512609  0.121572163


 
 k-points in units of 2pi/SCALE and weight: pymatgen 4.7.6+ generated KPOINTS with g
   0.00000000  0.00000000  0.00000000       0.028
   0.03334560  0.01925213  0.00000286       0.056
  -0.00000003  0.03850420 -0.00000619       0.056
   0.03334557  0.05775633 -0.00000333       0.056
  -0.03334563  0.01925207 -0.00000905       0.056
  -0.00000542  0.00000489  0.03039304       0.056
   0.03334018  0.01925702  0.03039590       0.056
  -0.03335102 -0.01924724  0.03039018       0.056
  -0.00000546  0.03850909  0.03038685       0.056
   0.03334014  0.05776122  0.03038971       0.056
  -0.03335106  0.01925696  0.03038399       0.056
  -0.00000539 -0.03849932  0.03039923       0.056
   0.03334021 -0.01924719  0.03040209       0.056
  -0.03335099 -0.05775144  0.03039637       0.056
  -0.00001085  0.00000977  0.06078608       0.028
   0.03333475  0.01926190  0.06078894       0.056
  -0.00001088  0.03851398  0.06077989       0.056
   0.03333472  0.05776611  0.06078275       0.056
  -0.03335648  0.01926185  0.06077703       0.056
 
 k-points in reciprocal lattice and weights: pymatgen 4.7.6+ generated KPOINTS with g
   0.00000000  0.00000000  0.00000000       0.028
   0.33333333 -0.00000000 -0.00000000       0.056
  -0.00000000  0.33333333  0.00000000       0.056
   0.33333333  0.33333333  0.00000000       0.056
  -0.33333333  0.33333333  0.00000000       0.056
  -0.00000000 -0.00000000  0.25000000       0.056
   0.33333333 -0.00000000  0.25000000       0.056
  -0.33333333  0.00000000  0.25000000       0.056
  -0.00000000  0.33333333  0.25000000       0.056
   0.33333333  0.33333333  0.25000000       0.056
  -0.33333333  0.33333333  0.25000000       0.056
  -0.00000000 -0.33333333  0.25000000       0.056
   0.33333333 -0.33333333  0.25000000       0.056
  -0.33333333 -0.33333333  0.25000000       0.056
  -0.00000000 -0.00000000  0.50000000       0.028
   0.33333333 -0.00000000  0.50000000       0.056
  -0.00000000  0.33333333  0.50000000       0.056
   0.33333333  0.33333333  0.50000000       0.056
  -0.33333333  0.33333333  0.50000000       0.056
 
 position of ions in fractional coordinates (direct lattice) 
   0.00000000  0.00000000  0.00000000
   0.00000000  0.00000000  0.50000000
   0.00000000  0.50000000  0.00000000
   0.00000000  0.50000000  0.50000000
   0.50000000  0.00000000  0.00000000
   0.50000000  0.00000000  0.50000000
   0.50000000  0.50000000  0.00000000
   0.50000000  0.50000000  0.50000000
   0.16666700  0.33333300  0.24999900
   0.16666700  0.33333300  0.74999900
   0.16666700  0.83333300  0.24999900
   0.16666700  0.83333300  0.74999900
   0.66666700  0.33333300  0.24999900
   0.66666700  0.33333300  0.74999900
   0.66666700  0.83333300  0.24999900
   0.66666700  0.83333300  0.74999900
   0.33333300  0.16666700  0.25000100
   0.33333300  0.16666700  0.75000100
   0.33333300  0.66666700  0.25000100
   0.33333300  0.66666700  0.75000100
   0.83333300  0.16666700  0.25000100
   0.83333300  0.16666700  0.75000100
   0.83333300  0.66666700  0.25000100
   0.83333300  0.66666700  0.75000100
   0.32146000  0.32146000  0.12713500
   0.32146000  0.32146000  0.62713500
   0.32146000  0.82146000  0.12713500
   0.32146000  0.82146000  0.62713500
   0.82146000  0.32146000  0.12713500
   0.82146000  0.32146000  0.62713500
   0.82146000  0.82146000  0.12713500
   0.82146000  0.82146000  0.62713500
   0.17854000  0.00000000  0.12713500
   0.17854000  0.00000000  0.62713500
   0.17854000  0.50000000  0.12713500
   0.17854000  0.50000000  0.62713500
   0.67854000  0.00000000  0.12713500
   0.67854000  0.00000000  0.62713500
   0.67854000  0.50000000  0.12713500
   0.67854000  0.50000000  0.62713500
   0.00000000  0.17854000  0.12713500
   0.00000000  0.17854000  0.62713500
   0.00000000  0.67854000  0.12713500
   0.00000000  0.67854000  0.62713500
   0.50000000  0.17854000  0.12713500
   0.50000000  0.17854000  0.62713500
   0.50000000  0.67854000  0.12713500
   0.50000000  0.67854000  0.62713500
   0.32146000  0.00000000  0.37286500
   0.32146000  0.00000000  0.87286500
   0.32146000  0.50000000  0.37286500
   0.32146000  0.50000000  0.87286500
   0.82146000  0.00000000  0.37286500
   0.82146000  0.00000000  0.87286500
   0.82146000  0.50000000  0.37286500
   0.82146000  0.50000000  0.87286500
   0.17854000  0.17854000  0.37286500
   0.17854000  0.17854000  0.87286500
   0.17854000  0.67854000  0.37286500
   0.17854000  0.67854000  0.87286500
   0.67854000  0.17854000  0.37286500
   0.67854000  0.17854000  0.87286500
   0.67854000  0.67854000  0.37286500
   0.67854000  0.67854000  0.87286500
   0.00000000  0.32146000  0.37286500
   0.00000000  0.32146000  0.87286500
   0.00000000  0.82146000  0.37286500
   0.00000000  0.82146000  0.87286500
   0.50000000  0.32146000  0.37286500
   0.50000000  0.32146000  0.87286500
   0.50000000  0.82146000  0.37286500
   0.50000000  0.82146000  0.87286500
 
 position of ions in cartesian coordinates  (Angst):
   0.00000000  0.00000000  0.00000000
  -0.00073400  0.00066100  4.11278350
  -2.49908250  4.32852950 -0.00114200
  -2.49981650  4.32919050  4.11164150
   4.99815800  0.00000450  0.00089200
   4.99742400  0.00066550  4.11367550
   2.49907550  4.32853400 -0.00025000
   2.49834150  4.32919500  4.11253350
  -0.00036433  2.88601545  2.05591953
  -0.00109833  2.88667645  6.16870303
  -2.49944683  7.21454495  2.05477753
  -2.50018083  7.21520595  6.16756103
   4.99779367  2.88601995  2.05681153
   4.99705967  2.88668095  6.16959503
   2.49871117  7.21454945  2.05566953
   2.49797717  7.21521045  6.16845303
   2.49870583  1.44317955  2.05661397
   2.49797183  1.44384055  6.16939747
  -0.00037667  5.77170905  2.05547197
  -0.00111067  5.77237005  6.16825547
   7.49686383  1.44318405  2.05750597
   7.49612983  1.44384505  6.17028947
   4.99778133  5.77171355  2.05636397
   4.99704733  5.77237455  6.16914747
   1.60651899  2.78306915  1.04559673
   1.60578499  2.78373015  5.15838023
  -0.89256351  7.11159865  1.04445473
  -0.89329751  7.11225965  5.15723823
   6.60467699  2.78307365  1.04648873
   6.60394299  2.78373465  5.15927223
   4.10559449  7.11160315  1.04534673
   4.10486049  7.11226415  5.15813023
   1.78455562  0.00016968  1.04607598
   1.78382162  0.00083068  5.15885948
  -0.71452688  4.32869918  1.04493398
  -0.71526088  4.32936018  5.15771748
   6.78271362  0.00017418  1.04696798
   6.78197962  0.00083518  5.15975148
   4.28363112  4.32870368  1.04582598
   4.28289712  4.32936468  5.15860948
  -0.89255901  1.54579939  1.04534968
  -0.89329301  1.54646039  5.15813318
  -3.39164151  5.87432889  1.04420768
  -3.39237551  5.87498989  5.15699118
   4.10559899  1.54580389  1.04624168
   4.10486499  1.54646489  5.15902518
   1.60651649  5.87433339  1.04509968
   1.60578249  5.87499439  5.15788318
   3.21286838  0.00049582  3.06759952
   3.21213438  0.00115682  7.18038302
   0.71378588  4.32902532  3.06645752
   0.71305188  4.32968632  7.17924102
   8.21102638  0.00050032  3.06849152
   8.21029238  0.00116132  7.18127502
   5.71194388  4.32902982  3.06734952
   5.71120988  4.32969082  7.18013302
   0.89182251  1.54612585  3.06693677
   0.89108851  1.54678685  7.17972027
  -1.60725999  5.87465535  3.06579477
  -1.60799399  5.87531635  7.17857827
   5.88998051  1.54613035  3.06782877
   5.88924651  1.54679135  7.18061227
   3.39089801  5.87465985  3.06668677
   3.39016401  5.87532085  7.17947027
  -1.60725749  2.78339111  3.06629182
  -1.60799149  2.78405211  7.17907532
  -4.10633999  7.11192061  3.06514982
  -4.10707399  7.11258161  7.17793332
   3.39090051  2.78339561  3.06718382
   3.39016651  2.78405661  7.17996732
   0.89181801  7.11192511  3.06604182
   0.89108401  7.11258611  7.17882532
 


--------------------------------------------------------------------------------------------------------


 k-point  1 :   0.0000 0.0000 0.0000  plane waves:   18077
 k-point  2 :   0.3333-0.0000-0.0000  plane waves:   18058
 k-point  3 :  -0.0000 0.3333 0.0000  plane waves:   18058
 k-point  4 :   0.3333 0.3333 0.0000  plane waves:   18036
 k-point  5 :  -0.3333 0.3333 0.0000  plane waves:   18058
 k-point  6 :  -0.0000-0.0000 0.2500  plane waves:   18078
 k-point  7 :   0.3333-0.0000 0.2500  plane waves:   18072
 k-point  8 :  -0.3333 0.0000 0.2500  plane waves:   18072
 k-point  9 :  -0.0000 0.3333 0.2500  plane waves:   18072
 k-point 10 :   0.3333 0.3333 0.2500  plane waves:   18054
 k-point 11 :  -0.3333 0.3333 0.2500  plane waves:   18072
 k-point 12 :  -0.0000-0.3333 0.2500  plane waves:   18072
 k-point 13 :   0.3333-0.3333 0.2500  plane waves:   18072
 k-point 14 :  -0.3333-0.3333 0.2500  plane waves:   18054
 k-point 15 :  -0.0000-0.0000 0.5000  plane waves:   18054
 k-point 16 :   0.3333-0.0000 0.5000  plane waves:   18072
 k-point 17 :  -0.0000 0.3333 0.5000  plane waves:   18072
 k-point 18 :   0.3333 0.3333 0.5000  plane waves:   18150
 k-point 19 :  -0.3333 0.3333 0.5000  plane waves:   18072

 maximum and minimum number of plane-waves per node :     18150    18036

 maximum number of plane-waves:     18150
 maximum index in each direction: 
   IXMAX=   18   IYMAX=   18   IZMAX=   14
   IXMIN=  -18   IYMIN=  -18   IZMIN=  -15


 serial   3D FFT for wavefunctions
 parallel 3D FFT for charge:
    minimum data exchange during FFTs selected (reduces bandwidth)


 total amount of memory used by VASP MPI-rank0   254398. kBytes
=======================================================================

   base      :      30000. kBytes
   nonlr-proj:      37593. kBytes
   fftplans  :       5472. kBytes
   grid      :      41200. kBytes
   one-center:       2239. kBytes
   wavefun   :     137894. kBytes
 
     INWAV:  cpu time    0.0000: real time    0.0001
 Broyden mixing: mesh for mixing (old mesh)
   NGX = 37   NGY = 37   NGZ = 29
  (NGX  =160   NGY  =160   NGZ  =120)
  gives a total of  39701 points

 initial charge density was supplied:
 charge density of overlapping atoms calculated
 number of electron     520.0000000 magnetization      26.8240000
 keeping initial charge density in first step


--------------------------------------------------------------------------------------------------------


 Maximum index for non-local projection operator         7044
 Maximum index for augmentation-charges          665 (set IRDMAX)


--------------------------------------------------------------------------------------------------------


 First call to EWALD:  gamma=   0.199
 Maximum number of real-space cells 3x 3x 3
 Maximum number of reciprocal cells 3x 3x 3

    FEWALD:  cpu time    0.0026: real time    0.0026


--------------------------------------- Iteration      1(   1)  ---------------------------------------


    POTLOK:  cpu time    0.2066: real time    0.2080
    SETDIJ:  cpu time    1.0413: real time    1.0521
atom =   1  type =  1  l = 0
 
 onsite density matrix
 
spin component  1
 
  1.0209
 
spin component  2
 
  1.0189
 
 occupancies and eigenvectors
 
  o =  1.0189  v =  0.0000  1.0000      0.0000  0.0000
  o =  1.0209  v =  1.0000  0.0000      0.0000  0.0000
atom =   2  type =  1  l = 0
 
 onsite density matrix
 
spin component  1
 
  1.0209
 
spin component  2
 
  1.0189
 
 occupancies and eigenvectors
 
  o =  1.0189  v =  0.0000  1.0000      0.0000  0.0000
  o =  1.0209  v =  1.0000  0.0000      0.0000  0.0000
atom =   3  type =  1  l = 0
 
 onsite density matrix
 
spin component  1
 
  1.0209
 
spin component  2
 
  1.0189
 
 occupancies and eigenvectors
 
  o =  1.0189  v =  0.0000  1.0000      0.0000  0.0000
  o =  1.0209  v =  1.0000  0.0000      0.0000  0.0000
atom =   4  type =  1  l = 0
 
 onsite density matrix
 
spin component  1
 
  1.0209
 
spin component  2
 
  1.0189
 
 occupancies and eigenvectors
 
  o =  1.0189  v =  0.0000  1.0000      0.0000  0.0000
  o =  1.0209  v =  1.0000  0.0000      0.0000  0.0000
atom =   5  type =  1  l = 0
 
 onsite density matrix
 
spin component  1
 
  1.0209
 
spin component  2
 
  1.0189
 
 occupancies and eigenvectors
 
  o =  1.0189  v =  0.0000  1.0000      0.0000  0.0000
  o =  1.0209  v =  1.0000  0.0000      0.0000  0.0000
atom =   6  type =  1  l = 0
 
 onsite density matrix
 
spin component  1
 
  1.0209
 
spin component  2
 
  1.0189
 
 occupancies and eigenvectors
 
  o =  1.0189  v =  0.0000  1.0000      0.0000  0.0000
  o =  1.0209  v =  1.0000  0.0000      0.0000  0.0000
atom =   7  type =  1  l = 0
 
 onsite density matrix
 
spin component  1
 
  1.0209
 
spin component  2
 
  1.0189
 
 occupancies and eigenvectors
 
  o =  1.0189  v =  0.0000  1.0000      0.0000  0.0000
  o =  1.0209  v =  1.0000  0.0000      0.0000  0.0000
atom =   8  type =  1  l = 0
 
 onsite density matrix
 
spin component  1
 
  1.0209
 
spin component  2
 
  1.0189
 
 occupancies and eigenvectors
 
  o =  1.0189  v =  0.0000  1.0000      0.0000  0.0000
  o =  1.0209  v =  1.0000  0.0000      0.0000  0.0000
atom =   9  type =  2  l = 2
 
 onsite density matrix
 
spin component  1
 
  0.6499  0.0000  0.0000  0.0000  0.0000
  0.0000  0.6499  0.0000  0.0000  0.0000
  0.0000  0.0000  0.6499  0.0000  0.0000
  0.0000  0.0000  0.0000  0.6499  0.0000
  0.0000  0.0000  0.0000  0.0000  0.6499
 
spin component  2
 
  0.4029  0.0000  0.0000  0.0000  0.0000
  0.0000  0.4029  0.0000  0.0000  0.0000
  0.0000  0.0000  0.4029  0.0000  0.0000
  0.0000  0.0000  0.0000  0.4029  0.0000
  0.0000  0.0000  0.0000  0.0000  0.4029
 
 occupancies and eigenvectors
 
  o =  0.4029  v =  0.0000  0.0000  0.0000  0.0000  0.0000  1.0000  0.0000  0.0000  0.0000  0.0000      0.0000  0.0000  0.0000  0.0000  0.0000  0.0000  0.0000  0.0000  0.0000  0.0000
  o =  0.4029  v =  0.0000  0.0000  0.0000  0.0000  0.0000  0.0000  1.0000  0.0000  0.0000  0.0000      0.0000  0.0000  0.0000  0.0000  0.0000  0.0000  0.0000  0.0000  0.0000  0.0000
  o =  0.4029  v =  0.0000  0.0000  0.0000  0.0000  0.0000  0.0000  0.0000  1.0000  0.0000  0.0000      0.0000  0.0000  0.0000  0.0000  0.0000  0.0000  0.0000  0.0000  0.0000  0.0000
  o =  0.4029  v =  0.0000  0.0000  0.0000  0.0000  0.0000  0.0000  0.0000  0.0000  0.0000 -1.0000      0.0000  0.0000  0.0000  0.0000  0.0000  0.0000  0.0000  0.0000  0.0000  0.0000
  o =  0.4029  v =  0.0000  0.0000  0.0000  0.0000  0.0000  0.0000  0.0000  0.0000 -1.0000  0.0000      0.0000  0.0000  0.0000  0.0000  0.0000  0.0000  0.0000  0.0000  0.0000  0.0000
  o =  0.6499  v =  1.0000  0.0000  0.0000  0.0000  0.0000  0.0000  0.0000  0.0000  0.0000  0.0000      0.0000  0.0000  0.0000  0.0000  0.0000  0.0000  0.0000  0.0000  0.0000  0.0000
  o =  0.6499  v =  0.0000  1.0000  0.0000  0.0000  0.0000  0.0000  0.0000  0.0000  0.0000  0.0000      0.0000  0.0000  0.0000  0.0000  0.0000  0.0000  0.0000  0.0000  0.0000  0.0000
  o =  0.6499  v =  0.0000  0.0000  1.0000  0.0000  0.0000  0.0000  0.0000  0.0000  0.0000  0.0000      0.0000  0.0000  0.0000  0.0000  0.0000  0.0000  0.0000  0.0000  0.0000  0.0000
  o =  0.6499  v =  0.0000  0.0000  0.0000  0.0000 -1.0000  0.0000  0.0000  0.0000  0.0000  0.0000      0.0000  0.0000  0.0000  0.0000  0.0000  0.0000  0.0000  0.0000  0.0000  0.0000
  o =  0.6499  v =  0.0000  0.0000  0.0000 -1.0000  0.0000  0.0000  0.0000  0.0000  0.0000  0.0000      0.0000  0.0000  0.0000  0.0000  0.0000  0.0000  0.0000  0.0000  0.0000  0.0000
atom =  10  type =  2  l = 2
 
 onsite density matrix
 
spin component  1
 
  0.6499  0.0000  0.0000  0.0000  0.0000
  0.0000  0.6499  0.0000  0.0000  0.0000
  0.0000  0.0000  0.6499  0.0000  0.0000
  0.0000  0.0000  0.0000  0.6499  0.0000
  0.0000  0.0000  0.0000  0.0000  0.6499
 
spin component  2
 
  0.4029  0.0000  0.0000  0.0000  0.0000
  0.0000  0.4029  0.0000  0.0000  0.0000
  0.0000  0.0000  0.4029  0.0000  0.0000
  0.0000  0.0000  0.0000  0.4029  0.0000
  0.0000  0.0000  0.0000  0.0000  0.4029
 
 occupancies and eigenvectors
 
  o =  0.4029  v =  0.0000  0.0000  0.0000  0.0000  0.0000  1.0000  0.0000  0.0000  0.0000  0.0000      0.0000  0.0000  0.0000  0.0000  0.0000  0.0000  0.0000  0.0000  0.0000  0.0000
  o =  0.4029  v =  0.0000  0.0000  0.0000  0.0000  0.0000  0.0000  1.0000  0.0000  0.0000  0.0000      0.0000  0.0000  0.0000  0.0000  0.0000  0.0000  0.0000  0.0000  0.0000  0.0000
  o =  0.4029  v =  0.0000  0.0000  0.0000  0.0000  0.0000  0.0000  0.0000  1.0000  0.0000  0.0000      0.0000  0.0000  0.0000  0.0000  0.0000  0.0000  0.0000  0.0000  0.0000  0.0000
  o =  0.4029  v =  0.0000  0.0000  0.0000  0.0000  0.0000  0.0000  0.0000  0.0000  0.0000 -1.0000      0.0000  0.0000  0.0000  0.0000  0.0000  0.0000  0.0000  0.0000  0.0000  0.0000
  o =  0.4029  v =  0.0000  0.0000  0.0000  0.0000  0.0000  0.0000  0.0000  0.0000 -1.0000  0.0000      0.0000  0.0000  0.0000  0.0000  0.0000  0.0000  0.0000  0.0000  0.0000  0.0000
  o =  0.6499  v =  1.0000  0.0000  0.0000  0.0000  0.0000  0.0000  0.0000  0.0000  0.0000  0.0000      0.0000  0.0000  0.0000  0.0000  0.0000  0.0000  0.0000  0.0000  0.0000  0.0000
  o =  0.6499  v =  0.0000  1.0000  0.0000  0.0000  0.0000  0.0000  0.0000  0.0000  0.0000  0.0000      0.0000  0.0000  0.0000  0.0000  0.0000  0.0000  0.0000  0.0000  0.0000  0.0000
  o =  0.6499  v =  0.0000  0.0000  1.0000  0.0000  0.0000  0.0000  0.0000  0.0000  0.0000  0.0000      0.0000  0.0000  0.0000  0.0000  0.0000  0.0000  0.0000  0.0000  0.0000  0.0000
  o =  0.6499  v =  0.0000  0.0000  0.0000  0.0000 -1.0000  0.0000  0.0000  0.0000  0.0000  0.0000      0.0000  0.0000  0.0000  0.0000  0.0000  0.0000  0.0000  0.0000  0.0000  0.0000
  o =  0.6499  v =  0.0000  0.0000  0.0000 -1.0000  0.0000  0.0000  0.0000  0.0000  0.0000  0.0000      0.0000  0.0000  0.0000  0.0000  0.0000  0.0000  0.0000  0.0000  0.0000  0.0000
atom =  11  type =  2  l = 2
 
 onsite density matrix
 
spin component  1
 
  0.6499  0.0000  0.0000  0.0000  0.0000
  0.0000  0.6499  0.0000  0.0000  0.0000
  0.0000  0.0000  0.6499  0.0000  0.0000
  0.0000  0.0000  0.0000  0.6499  0.0000
  0.0000  0.0000  0.0000  0.0000  0.6499
 
spin component  2
 
  0.4029  0.0000  0.0000  0.0000  0.0000
  0.0000  0.4029  0.0000  0.0000  0.0000
  0.0000  0.0000  0.4029  0.0000  0.0000
  0.0000  0.0000  0.0000  0.4029  0.0000
  0.0000  0.0000  0.0000  0.0000  0.4029
 
 occupancies and eigenvectors
 
  o =  0.4029  v =  0.0000  0.0000  0.0000  0.0000  0.0000  1.0000  0.0000  0.0000  0.0000  0.0000      0.0000  0.0000  0.0000  0.0000  0.0000  0.0000  0.0000  0.0000  0.0000  0.0000
  o =  0.4029  v =  0.0000  0.0000  0.0000  0.0000  0.0000  0.0000  1.0000  0.0000  0.0000  0.0000      0.0000  0.0000  0.0000  0.0000  0.0000  0.0000  0.0000  0.0000  0.0000  0.0000
  o =  0.4029  v =  0.0000  0.0000  0.0000  0.0000  0.0000  0.0000  0.0000  1.0000  0.0000  0.0000      0.0000  0.0000  0.0000  0.0000  0.0000  0.0000  0.0000  0.0000  0.0000  0.0000
  o =  0.4029  v =  0.0000  0.0000  0.0000  0.0000  0.0000  0.0000  0.0000  0.0000  0.0000 -1.0000      0.0000  0.0000  0.0000  0.0000  0.0000  0.0000  0.0000  0.0000  0.0000  0.0000
  o =  0.4029  v =  0.0000  0.0000  0.0000  0.0000  0.0000  0.0000  0.0000  0.0000 -1.0000  0.0000      0.0000  0.0000  0.0000  0.0000  0.0000  0.0000  0.0000  0.0000  0.0000  0.0000
  o =  0.6499  v =  1.0000  0.0000  0.0000  0.0000  0.0000  0.0000  0.0000  0.0000  0.0000  0.0000      0.0000  0.0000  0.0000  0.0000  0.0000  0.0000  0.0000  0.0000  0.0000  0.0000
  o =  0.6499  v =  0.0000  1.0000  0.0000  0.0000  0.0000  0.0000  0.0000  0.0000  0.0000  0.0000      0.0000  0.0000  0.0000  0.0000  0.0000  0.0000  0.0000  0.0000  0.0000  0.0000
  o =  0.6499  v =  0.0000  0.0000  1.0000  0.0000  0.0000  0.0000  0.0000  0.0000  0.0000  0.0000      0.0000  0.0000  0.0000  0.0000  0.0000  0.0000  0.0000  0.0000  0.0000  0.0000
  o =  0.6499  v =  0.0000  0.0000  0.0000  0.0000 -1.0000  0.0000  0.0000  0.0000  0.0000  0.0000      0.0000  0.0000  0.0000  0.0000  0.0000  0.0000  0.0000  0.0000  0.0000  0.0000
  o =  0.6499  v =  0.0000  0.0000  0.0000 -1.0000  0.0000  0.0000  0.0000  0.0000  0.0000  0.0000      0.0000  0.0000  0.0000  0.0000  0.0000  0.0000  0.0000  0.0000  0.0000  0.0000
atom =  12  type =  2  l = 2
 
 onsite density matrix
 
spin component  1
 
  0.6499  0.0000  0.0000  0.0000  0.0000
  0.0000  0.6499  0.0000  0.0000  0.0000
  0.0000  0.0000  0.6499  0.0000  0.0000
  0.0000  0.0000  0.0000  0.6499  0.0000
  0.0000  0.0000  0.0000  0.0000  0.6499
 
spin component  2
 
  0.4029  0.0000  0.0000  0.0000  0.0000
  0.0000  0.4029  0.0000  0.0000  0.0000
  0.0000  0.0000  0.4029  0.0000  0.0000
  0.0000  0.0000  0.0000  0.4029  0.0000
  0.0000  0.0000  0.0000  0.0000  0.4029
 
 occupancies and eigenvectors
 
  o =  0.4029  v =  0.0000  0.0000  0.0000  0.0000  0.0000  1.0000  0.0000  0.0000  0.0000  0.0000      0.0000  0.0000  0.0000  0.0000  0.0000  0.0000  0.0000  0.0000  0.0000  0.0000
  o =  0.4029  v =  0.0000  0.0000  0.0000  0.0000  0.0000  0.0000  1.0000  0.0000  0.0000  0.0000      0.0000  0.0000  0.0000  0.0000  0.0000  0.0000  0.0000  0.0000  0.0000  0.0000
  o =  0.4029  v =  0.0000  0.0000  0.0000  0.0000  0.0000  0.0000  0.0000  1.0000  0.0000  0.0000      0.0000  0.0000  0.0000  0.0000  0.0000  0.0000  0.0000  0.0000  0.0000  0.0000
  o =  0.4029  v =  0.0000  0.0000  0.0000  0.0000  0.0000  0.0000  0.0000  0.0000  0.0000 -1.0000      0.0000  0.0000  0.0000  0.0000  0.0000  0.0000  0.0000  0.0000  0.0000  0.0000
  o =  0.4029  v =  0.0000  0.0000  0.0000  0.0000  0.0000  0.0000  0.0000  0.0000 -1.0000  0.0000      0.0000  0.0000  0.0000  0.0000  0.0000  0.0000  0.0000  0.0000  0.0000  0.0000
  o =  0.6499  v =  1.0000  0.0000  0.0000  0.0000  0.0000  0.0000  0.0000  0.0000  0.0000  0.0000      0.0000  0.0000  0.0000  0.0000  0.0000  0.0000  0.0000  0.0000  0.0000  0.0000
  o =  0.6499  v =  0.0000  1.0000  0.0000  0.0000  0.0000  0.0000  0.0000  0.0000  0.0000  0.0000      0.0000  0.0000  0.0000  0.0000  0.0000  0.0000  0.0000  0.0000  0.0000  0.0000
  o =  0.6499  v =  0.0000  0.0000  1.0000  0.0000  0.0000  0.0000  0.0000  0.0000  0.0000  0.0000      0.0000  0.0000  0.0000  0.0000  0.0000  0.0000  0.0000  0.0000  0.0000  0.0000
  o =  0.6499  v =  0.0000  0.0000  0.0000  0.0000 -1.0000  0.0000  0.0000  0.0000  0.0000  0.0000      0.0000  0.0000  0.0000  0.0000  0.0000  0.0000  0.0000  0.0000  0.0000  0.0000
  o =  0.6499  v =  0.0000  0.0000  0.0000 -1.0000  0.0000  0.0000  0.0000  0.0000  0.0000  0.0000      0.0000  0.0000  0.0000  0.0000  0.0000  0.0000  0.0000  0.0000  0.0000  0.0000
atom =  13  type =  2  l = 2
 
 onsite density matrix
 
spin component  1
 
  0.6499  0.0000  0.0000  0.0000  0.0000
  0.0000  0.6499  0.0000  0.0000  0.0000
  0.0000  0.0000  0.6499  0.0000  0.0000
  0.0000  0.0000  0.0000  0.6499  0.0000
  0.0000  0.0000  0.0000  0.0000  0.6499
 
spin component  2
 
  0.4029  0.0000  0.0000  0.0000  0.0000
  0.0000  0.4029  0.0000  0.0000  0.0000
  0.0000  0.0000  0.4029  0.0000  0.0000
  0.0000  0.0000  0.0000  0.4029  0.0000
  0.0000  0.0000  0.0000  0.0000  0.4029
 
 occupancies and eigenvectors
 
  o =  0.4029  v =  0.0000  0.0000  0.0000  0.0000  0.0000  1.0000  0.0000  0.0000  0.0000  0.0000      0.0000  0.0000  0.0000  0.0000  0.0000  0.0000  0.0000  0.0000  0.0000  0.0000
  o =  0.4029  v =  0.0000  0.0000  0.0000  0.0000  0.0000  0.0000  1.0000  0.0000  0.0000  0.0000      0.0000  0.0000  0.0000  0.0000  0.0000  0.0000  0.0000  0.0000  0.0000  0.0000
  o =  0.4029  v =  0.0000  0.0000  0.0000  0.0000  0.0000  0.0000  0.0000  1.0000  0.0000  0.0000      0.0000  0.0000  0.0000  0.0000  0.0000  0.0000  0.0000  0.0000  0.0000  0.0000
  o =  0.4029  v =  0.0000  0.0000  0.0000  0.0000  0.0000  0.0000  0.0000  0.0000  0.0000 -1.0000      0.0000  0.0000  0.0000  0.0000  0.0000  0.0000  0.0000  0.0000  0.0000  0.0000
  o =  0.4029  v =  0.0000  0.0000  0.0000  0.0000  0.0000  0.0000  0.0000  0.0000 -1.0000  0.0000      0.0000  0.0000  0.0000  0.0000  0.0000  0.0000  0.0000  0.0000  0.0000  0.0000
  o =  0.6499  v =  1.0000  0.0000  0.0000  0.0000  0.0000  0.0000  0.0000  0.0000  0.0000  0.0000      0.0000  0.0000  0.0000  0.0000  0.0000  0.0000  0.0000  0.0000  0.0000  0.0000
  o =  0.6499  v =  0.0000  1.0000  0.0000  0.0000  0.0000  0.0000  0.0000  0.0000  0.0000  0.0000      0.0000  0.0000  0.0000  0.0000  0.0000  0.0000  0.0000  0.0000  0.0000  0.0000
  o =  0.6499  v =  0.0000  0.0000  1.0000  0.0000  0.0000  0.0000  0.0000  0.0000  0.0000  0.0000      0.0000  0.0000  0.0000  0.0000  0.0000  0.0000  0.0000  0.0000  0.0000  0.0000
  o =  0.6499  v =  0.0000  0.0000  0.0000  0.0000 -1.0000  0.0000  0.0000  0.0000  0.0000  0.0000      0.0000  0.0000  0.0000  0.0000  0.0000  0.0000  0.0000  0.0000  0.0000  0.0000
  o =  0.6499  v =  0.0000  0.0000  0.0000 -1.0000  0.0000  0.0000  0.0000  0.0000  0.0000  0.0000      0.0000  0.0000  0.0000  0.0000  0.0000  0.0000  0.0000  0.0000  0.0000  0.0000
atom =  14  type =  2  l = 2
 
 onsite density matrix
 
spin component  1
 
  0.6499  0.0000  0.0000  0.0000  0.0000
  0.0000  0.6499  0.0000  0.0000  0.0000
  0.0000  0.0000  0.6499  0.0000  0.0000
  0.0000  0.0000  0.0000  0.6499  0.0000
  0.0000  0.0000  0.0000  0.0000  0.6499
 
spin component  2
 
  0.4029  0.0000  0.0000  0.0000  0.0000
  0.0000  0.4029  0.0000  0.0000  0.0000
  0.0000  0.0000  0.4029  0.0000  0.0000
  0.0000  0.0000  0.0000  0.4029  0.0000
  0.0000  0.0000  0.0000  0.0000  0.4029
 
 occupancies and eigenvectors
 
  o =  0.4029  v =  0.0000  0.0000  0.0000  0.0000  0.0000  1.0000  0.0000  0.0000  0.0000  0.0000      0.0000  0.0000  0.0000  0.0000  0.0000  0.0000  0.0000  0.0000  0.0000  0.0000
  o =  0.4029  v =  0.0000  0.0000  0.0000  0.0000  0.0000  0.0000  1.0000  0.0000  0.0000  0.0000      0.0000  0.0000  0.0000  0.0000  0.0000  0.0000  0.0000  0.0000  0.0000  0.0000
  o =  0.4029  v =  0.0000  0.0000  0.0000  0.0000  0.0000  0.0000  0.0000  1.0000  0.0000  0.0000      0.0000  0.0000  0.0000  0.0000  0.0000  0.0000  0.0000  0.0000  0.0000  0.0000
  o =  0.4029  v =  0.0000  0.0000  0.0000  0.0000  0.0000  0.0000  0.0000  0.0000  0.0000 -1.0000      0.0000  0.0000  0.0000  0.0000  0.0000  0.0000  0.0000  0.0000  0.0000  0.0000
  o =  0.4029  v =  0.0000  0.0000  0.0000  0.0000  0.0000  0.0000  0.0000  0.0000 -1.0000  0.0000      0.0000  0.0000  0.0000  0.0000  0.0000  0.0000  0.0000  0.0000  0.0000  0.0000
  o =  0.6499  v =  1.0000  0.0000  0.0000  0.0000  0.0000  0.0000  0.0000  0.0000  0.0000  0.0000      0.0000  0.0000  0.0000  0.0000  0.0000  0.0000  0.0000  0.0000  0.0000  0.0000
  o =  0.6499  v =  0.0000  1.0000  0.0000  0.0000  0.0000  0.0000  0.0000  0.0000  0.0000  0.0000      0.0000  0.0000  0.0000  0.0000  0.0000  0.0000  0.0000  0.0000  0.0000  0.0000
  o =  0.6499  v =  0.0000  0.0000  1.0000  0.0000  0.0000  0.0000  0.0000  0.0000  0.0000  0.0000      0.0000  0.0000  0.0000  0.0000  0.0000  0.0000  0.0000  0.0000  0.0000  0.0000
  o =  0.6499  v =  0.0000  0.0000  0.0000  0.0000 -1.0000  0.0000  0.0000  0.0000  0.0000  0.0000      0.0000  0.0000  0.0000  0.0000  0.0000  0.0000  0.0000  0.0000  0.0000  0.0000
  o =  0.6499  v =  0.0000  0.0000  0.0000 -1.0000  0.0000  0.0000  0.0000  0.0000  0.0000  0.0000      0.0000  0.0000  0.0000  0.0000  0.0000  0.0000  0.0000  0.0000  0.0000  0.0000
atom =  15  type =  2  l = 2
 
 onsite density matrix
 
spin component  1
 
  0.6499  0.0000  0.0000  0.0000  0.0000
  0.0000  0.6499  0.0000  0.0000  0.0000
  0.0000  0.0000  0.6499  0.0000  0.0000
  0.0000  0.0000  0.0000  0.6499  0.0000
  0.0000  0.0000  0.0000  0.0000  0.6499
 
spin component  2
 
  0.4029  0.0000  0.0000  0.0000  0.0000
  0.0000  0.4029  0.0000  0.0000  0.0000
  0.0000  0.0000  0.4029  0.0000  0.0000
  0.0000  0.0000  0.0000  0.4029  0.0000
  0.0000  0.0000  0.0000  0.0000  0.4029
 
 occupancies and eigenvectors
 
  o =  0.4029  v =  0.0000  0.0000  0.0000  0.0000  0.0000  1.0000  0.0000  0.0000  0.0000  0.0000      0.0000  0.0000  0.0000  0.0000  0.0000  0.0000  0.0000  0.0000  0.0000  0.0000
  o =  0.4029  v =  0.0000  0.0000  0.0000  0.0000  0.0000  0.0000  1.0000  0.0000  0.0000  0.0000      0.0000  0.0000  0.0000  0.0000  0.0000  0.0000  0.0000  0.0000  0.0000  0.0000
  o =  0.4029  v =  0.0000  0.0000  0.0000  0.0000  0.0000  0.0000  0.0000  1.0000  0.0000  0.0000      0.0000  0.0000  0.0000  0.0000  0.0000  0.0000  0.0000  0.0000  0.0000  0.0000
  o =  0.4029  v =  0.0000  0.0000  0.0000  0.0000  0.0000  0.0000  0.0000  0.0000  0.0000 -1.0000      0.0000  0.0000  0.0000  0.0000  0.0000  0.0000  0.0000  0.0000  0.0000  0.0000
  o =  0.4029  v =  0.0000  0.0000  0.0000  0.0000  0.0000  0.0000  0.0000  0.0000 -1.0000  0.0000      0.0000  0.0000  0.0000  0.0000  0.0000  0.0000  0.0000  0.0000  0.0000  0.0000
  o =  0.6499  v =  1.0000  0.0000  0.0000  0.0000  0.0000  0.0000  0.0000  0.0000  0.0000  0.0000      0.0000  0.0000  0.0000  0.0000  0.0000  0.0000  0.0000  0.0000  0.0000  0.0000
  o =  0.6499  v =  0.0000  1.0000  0.0000  0.0000  0.0000  0.0000  0.0000  0.0000  0.0000  0.0000      0.0000  0.0000  0.0000  0.0000  0.0000  0.0000  0.0000  0.0000  0.0000  0.0000
  o =  0.6499  v =  0.0000  0.0000  1.0000  0.0000  0.0000  0.0000  0.0000  0.0000  0.0000  0.0000      0.0000  0.0000  0.0000  0.0000  0.0000  0.0000  0.0000  0.0000  0.0000  0.0000
  o =  0.6499  v =  0.0000  0.0000  0.0000  0.0000 -1.0000  0.0000  0.0000  0.0000  0.0000  0.0000      0.0000  0.0000  0.0000  0.0000  0.0000  0.0000  0.0000  0.0000  0.0000  0.0000
  o =  0.6499  v =  0.0000  0.0000  0.0000 -1.0000  0.0000  0.0000  0.0000  0.0000  0.0000  0.0000      0.0000  0.0000  0.0000  0.0000  0.0000  0.0000  0.0000  0.0000  0.0000  0.0000
atom =  16  type =  2  l = 2
 
 onsite density matrix
 
spin component  1
 
  0.6499  0.0000  0.0000  0.0000  0.0000
  0.0000  0.6499  0.0000  0.0000  0.0000
  0.0000  0.0000  0.6499  0.0000  0.0000
  0.0000  0.0000  0.0000  0.6499  0.0000
  0.0000  0.0000  0.0000  0.0000  0.6499
 
spin component  2
 
  0.4029  0.0000  0.0000  0.0000  0.0000
  0.0000  0.4029  0.0000  0.0000  0.0000
  0.0000  0.0000  0.4029  0.0000  0.0000
  0.0000  0.0000  0.0000  0.4029  0.0000
  0.0000  0.0000  0.0000  0.0000  0.4029
 
 occupancies and eigenvectors
 
  o =  0.4029  v =  0.0000  0.0000  0.0000  0.0000  0.0000  1.0000  0.0000  0.0000  0.0000  0.0000      0.0000  0.0000  0.0000  0.0000  0.0000  0.0000  0.0000  0.0000  0.0000  0.0000
  o =  0.4029  v =  0.0000  0.0000  0.0000  0.0000  0.0000  0.0000  1.0000  0.0000  0.0000  0.0000      0.0000  0.0000  0.0000  0.0000  0.0000  0.0000  0.0000  0.0000  0.0000  0.0000
  o =  0.4029  v =  0.0000  0.0000  0.0000  0.0000  0.0000  0.0000  0.0000  1.0000  0.0000  0.0000      0.0000  0.0000  0.0000  0.0000  0.0000  0.0000  0.0000  0.0000  0.0000  0.0000
  o =  0.4029  v =  0.0000  0.0000  0.0000  0.0000  0.0000  0.0000  0.0000  0.0000  0.0000 -1.0000      0.0000  0.0000  0.0000  0.0000  0.0000  0.0000  0.0000  0.0000  0.0000  0.0000
  o =  0.4029  v =  0.0000  0.0000  0.0000  0.0000  0.0000  0.0000  0.0000  0.0000 -1.0000  0.0000      0.0000  0.0000  0.0000  0.0000  0.0000  0.0000  0.0000  0.0000  0.0000  0.0000
  o =  0.6499  v =  1.0000  0.0000  0.0000  0.0000  0.0000  0.0000  0.0000  0.0000  0.0000  0.0000      0.0000  0.0000  0.0000  0.0000  0.0000  0.0000  0.0000  0.0000  0.0000  0.0000
  o =  0.6499  v =  0.0000  1.0000  0.0000  0.0000  0.0000  0.0000  0.0000  0.0000  0.0000  0.0000      0.0000  0.0000  0.0000  0.0000  0.0000  0.0000  0.0000  0.0000  0.0000  0.0000
  o =  0.6499  v =  0.0000  0.0000  1.0000  0.0000  0.0000  0.0000  0.0000  0.0000  0.0000  0.0000      0.0000  0.0000  0.0000  0.0000  0.0000  0.0000  0.0000  0.0000  0.0000  0.0000
  o =  0.6499  v =  0.0000  0.0000  0.0000  0.0000 -1.0000  0.0000  0.0000  0.0000  0.0000  0.0000      0.0000  0.0000  0.0000  0.0000  0.0000  0.0000  0.0000  0.0000  0.0000  0.0000
  o =  0.6499  v =  0.0000  0.0000  0.0000 -1.0000  0.0000  0.0000  0.0000  0.0000  0.0000  0.0000      0.0000  0.0000  0.0000  0.0000  0.0000  0.0000  0.0000  0.0000  0.0000  0.0000
atom =  17  type =  2  l = 2
 
 onsite density matrix
 
spin component  1
 
  0.6499  0.0000  0.0000  0.0000  0.0000
  0.0000  0.6499  0.0000  0.0000  0.0000
  0.0000  0.0000  0.6499  0.0000  0.0000
  0.0000  0.0000  0.0000  0.6499  0.0000
  0.0000  0.0000  0.0000  0.0000  0.6499
 
spin component  2
 
  0.4029  0.0000  0.0000  0.0000  0.0000
  0.0000  0.4029  0.0000  0.0000  0.0000
  0.0000  0.0000  0.4029  0.0000  0.0000
  0.0000  0.0000  0.0000  0.4029  0.0000
  0.0000  0.0000  0.0000  0.0000  0.4029
 
 occupancies and eigenvectors
 
  o =  0.4029  v =  0.0000  0.0000  0.0000  0.0000  0.0000  1.0000  0.0000  0.0000  0.0000  0.0000      0.0000  0.0000  0.0000  0.0000  0.0000  0.0000  0.0000  0.0000  0.0000  0.0000
  o =  0.4029  v =  0.0000  0.0000  0.0000  0.0000  0.0000  0.0000  1.0000  0.0000  0.0000  0.0000      0.0000  0.0000  0.0000  0.0000  0.0000  0.0000  0.0000  0.0000  0.0000  0.0000
  o =  0.4029  v =  0.0000  0.0000  0.0000  0.0000  0.0000  0.0000  0.0000  1.0000  0.0000  0.0000      0.0000  0.0000  0.0000  0.0000  0.0000  0.0000  0.0000  0.0000  0.0000  0.0000
  o =  0.4029  v =  0.0000  0.0000  0.0000  0.0000  0.0000  0.0000  0.0000  0.0000  0.0000 -1.0000      0.0000  0.0000  0.0000  0.0000  0.0000  0.0000  0.0000  0.0000  0.0000  0.0000
  o =  0.4029  v =  0.0000  0.0000  0.0000  0.0000  0.0000  0.0000  0.0000  0.0000 -1.0000  0.0000      0.0000  0.0000  0.0000  0.0000  0.0000  0.0000  0.0000  0.0000  0.0000  0.0000
  o =  0.6499  v =  1.0000  0.0000  0.0000  0.0000  0.0000  0.0000  0.0000  0.0000  0.0000  0.0000      0.0000  0.0000  0.0000  0.0000  0.0000  0.0000  0.0000  0.0000  0.0000  0.0000
  o =  0.6499  v =  0.0000  1.0000  0.0000  0.0000  0.0000  0.0000  0.0000  0.0000  0.0000  0.0000      0.0000  0.0000  0.0000  0.0000  0.0000  0.0000  0.0000  0.0000  0.0000  0.0000
  o =  0.6499  v =  0.0000  0.0000  1.0000  0.0000  0.0000  0.0000  0.0000  0.0000  0.0000  0.0000      0.0000  0.0000  0.0000  0.0000  0.0000  0.0000  0.0000  0.0000  0.0000  0.0000
  o =  0.6499  v =  0.0000  0.0000  0.0000  0.0000 -1.0000  0.0000  0.0000  0.0000  0.0000  0.0000      0.0000  0.0000  0.0000  0.0000  0.0000  0.0000  0.0000  0.0000  0.0000  0.0000
  o =  0.6499  v =  0.0000  0.0000  0.0000 -1.0000  0.0000  0.0000  0.0000  0.0000  0.0000  0.0000      0.0000  0.0000  0.0000  0.0000  0.0000  0.0000  0.0000  0.0000  0.0000  0.0000
atom =  18  type =  2  l = 2
 
 onsite density matrix
 
spin component  1
 
  0.6499  0.0000  0.0000  0.0000  0.0000
  0.0000  0.6499  0.0000  0.0000  0.0000
  0.0000  0.0000  0.6499  0.0000  0.0000
  0.0000  0.0000  0.0000  0.6499  0.0000
  0.0000  0.0000  0.0000  0.0000  0.6499
 
spin component  2
 
  0.4029  0.0000  0.0000  0.0000  0.0000
  0.0000  0.4029  0.0000  0.0000  0.0000
  0.0000  0.0000  0.4029  0.0000  0.0000
  0.0000  0.0000  0.0000  0.4029  0.0000
  0.0000  0.0000  0.0000  0.0000  0.4029
 
 occupancies and eigenvectors
 
  o =  0.4029  v =  0.0000  0.0000  0.0000  0.0000  0.0000  1.0000  0.0000  0.0000  0.0000  0.0000      0.0000  0.0000  0.0000  0.0000  0.0000  0.0000  0.0000  0.0000  0.0000  0.0000
  o =  0.4029  v =  0.0000  0.0000  0.0000  0.0000  0.0000  0.0000  1.0000  0.0000  0.0000  0.0000      0.0000  0.0000  0.0000  0.0000  0.0000  0.0000  0.0000  0.0000  0.0000  0.0000
  o =  0.4029  v =  0.0000  0.0000  0.0000  0.0000  0.0000  0.0000  0.0000  1.0000  0.0000  0.0000      0.0000  0.0000  0.0000  0.0000  0.0000  0.0000  0.0000  0.0000  0.0000  0.0000
  o =  0.4029  v =  0.0000  0.0000  0.0000  0.0000  0.0000  0.0000  0.0000  0.0000  0.0000 -1.0000      0.0000  0.0000  0.0000  0.0000  0.0000  0.0000  0.0000  0.0000  0.0000  0.0000
  o =  0.4029  v =  0.0000  0.0000  0.0000  0.0000  0.0000  0.0000  0.0000  0.0000 -1.0000  0.0000      0.0000  0.0000  0.0000  0.0000  0.0000  0.0000  0.0000  0.0000  0.0000  0.0000
  o =  0.6499  v =  1.0000  0.0000  0.0000  0.0000  0.0000  0.0000  0.0000  0.0000  0.0000  0.0000      0.0000  0.0000  0.0000  0.0000  0.0000  0.0000  0.0000  0.0000  0.0000  0.0000
  o =  0.6499  v =  0.0000  1.0000  0.0000  0.0000  0.0000  0.0000  0.0000  0.0000  0.0000  0.0000      0.0000  0.0000  0.0000  0.0000  0.0000  0.0000  0.0000  0.0000  0.0000  0.0000
  o =  0.6499  v =  0.0000  0.0000  1.0000  0.0000  0.0000  0.0000  0.0000  0.0000  0.0000  0.0000      0.0000  0.0000  0.0000  0.0000  0.0000  0.0000  0.0000  0.0000  0.0000  0.0000
  o =  0.6499  v =  0.0000  0.0000  0.0000  0.0000 -1.0000  0.0000  0.0000  0.0000  0.0000  0.0000      0.0000  0.0000  0.0000  0.0000  0.0000  0.0000  0.0000  0.0000  0.0000  0.0000
  o =  0.6499  v =  0.0000  0.0000  0.0000 -1.0000  0.0000  0.0000  0.0000  0.0000  0.0000  0.0000      0.0000  0.0000  0.0000  0.0000  0.0000  0.0000  0.0000  0.0000  0.0000  0.0000
atom =  19  type =  2  l = 2
 
 onsite density matrix
 
spin component  1
 
  0.6499  0.0000  0.0000  0.0000  0.0000
  0.0000  0.6499  0.0000  0.0000  0.0000
  0.0000  0.0000  0.6499  0.0000  0.0000
  0.0000  0.0000  0.0000  0.6499  0.0000
  0.0000  0.0000  0.0000  0.0000  0.6499
 
spin component  2
 
  0.4029  0.0000  0.0000  0.0000  0.0000
  0.0000  0.4029  0.0000  0.0000  0.0000
  0.0000  0.0000  0.4029  0.0000  0.0000
  0.0000  0.0000  0.0000  0.4029  0.0000
  0.0000  0.0000  0.0000  0.0000  0.4029
 
 occupancies and eigenvectors
 
  o =  0.4029  v =  0.0000  0.0000  0.0000  0.0000  0.0000  1.0000  0.0000  0.0000  0.0000  0.0000      0.0000  0.0000  0.0000  0.0000  0.0000  0.0000  0.0000  0.0000  0.0000  0.0000
  o =  0.4029  v =  0.0000  0.0000  0.0000  0.0000  0.0000  0.0000  1.0000  0.0000  0.0000  0.0000      0.0000  0.0000  0.0000  0.0000  0.0000  0.0000  0.0000  0.0000  0.0000  0.0000
  o =  0.4029  v =  0.0000  0.0000  0.0000  0.0000  0.0000  0.0000  0.0000  1.0000  0.0000  0.0000      0.0000  0.0000  0.0000  0.0000  0.0000  0.0000  0.0000  0.0000  0.0000  0.0000
  o =  0.4029  v =  0.0000  0.0000  0.0000  0.0000  0.0000  0.0000  0.0000  0.0000  0.0000 -1.0000      0.0000  0.0000  0.0000  0.0000  0.0000  0.0000  0.0000  0.0000  0.0000  0.0000
  o =  0.4029  v =  0.0000  0.0000  0.0000  0.0000  0.0000  0.0000  0.0000  0.0000 -1.0000  0.0000      0.0000  0.0000  0.0000  0.0000  0.0000  0.0000  0.0000  0.0000  0.0000  0.0000
  o =  0.6499  v =  1.0000  0.0000  0.0000  0.0000  0.0000  0.0000  0.0000  0.0000  0.0000  0.0000      0.0000  0.0000  0.0000  0.0000  0.0000  0.0000  0.0000  0.0000  0.0000  0.0000
  o =  0.6499  v =  0.0000  1.0000  0.0000  0.0000  0.0000  0.0000  0.0000  0.0000  0.0000  0.0000      0.0000  0.0000  0.0000  0.0000  0.0000  0.0000  0.0000  0.0000  0.0000  0.0000
  o =  0.6499  v =  0.0000  0.0000  1.0000  0.0000  0.0000  0.0000  0.0000  0.0000  0.0000  0.0000      0.0000  0.0000  0.0000  0.0000  0.0000  0.0000  0.0000  0.0000  0.0000  0.0000
  o =  0.6499  v =  0.0000  0.0000  0.0000  0.0000 -1.0000  0.0000  0.0000  0.0000  0.0000  0.0000      0.0000  0.0000  0.0000  0.0000  0.0000  0.0000  0.0000  0.0000  0.0000  0.0000
  o =  0.6499  v =  0.0000  0.0000  0.0000 -1.0000  0.0000  0.0000  0.0000  0.0000  0.0000  0.0000      0.0000  0.0000  0.0000  0.0000  0.0000  0.0000  0.0000  0.0000  0.0000  0.0000
atom =  20  type =  2  l = 2
 
 onsite density matrix
 
spin component  1
 
  0.6499  0.0000  0.0000  0.0000  0.0000
  0.0000  0.6499  0.0000  0.0000  0.0000
  0.0000  0.0000  0.6499  0.0000  0.0000
  0.0000  0.0000  0.0000  0.6499  0.0000
  0.0000  0.0000  0.0000  0.0000  0.6499
 
spin component  2
 
  0.4029  0.0000  0.0000  0.0000  0.0000
  0.0000  0.4029  0.0000  0.0000  0.0000
  0.0000  0.0000  0.4029  0.0000  0.0000
  0.0000  0.0000  0.0000  0.4029  0.0000
  0.0000  0.0000  0.0000  0.0000  0.4029
 
 occupancies and eigenvectors
 
  o =  0.4029  v =  0.0000  0.0000  0.0000  0.0000  0.0000  1.0000  0.0000  0.0000  0.0000  0.0000      0.0000  0.0000  0.0000  0.0000  0.0000  0.0000  0.0000  0.0000  0.0000  0.0000
  o =  0.4029  v =  0.0000  0.0000  0.0000  0.0000  0.0000  0.0000  1.0000  0.0000  0.0000  0.0000      0.0000  0.0000  0.0000  0.0000  0.0000  0.0000  0.0000  0.0000  0.0000  0.0000
  o =  0.4029  v =  0.0000  0.0000  0.0000  0.0000  0.0000  0.0000  0.0000  1.0000  0.0000  0.0000      0.0000  0.0000  0.0000  0.0000  0.0000  0.0000  0.0000  0.0000  0.0000  0.0000
  o =  0.4029  v =  0.0000  0.0000  0.0000  0.0000  0.0000  0.0000  0.0000  0.0000  0.0000 -1.0000      0.0000  0.0000  0.0000  0.0000  0.0000  0.0000  0.0000  0.0000  0.0000  0.0000
  o =  0.4029  v =  0.0000  0.0000  0.0000  0.0000  0.0000  0.0000  0.0000  0.0000 -1.0000  0.0000      0.0000  0.0000  0.0000  0.0000  0.0000  0.0000  0.0000  0.0000  0.0000  0.0000
  o =  0.6499  v =  1.0000  0.0000  0.0000  0.0000  0.0000  0.0000  0.0000  0.0000  0.0000  0.0000      0.0000  0.0000  0.0000  0.0000  0.0000  0.0000  0.0000  0.0000  0.0000  0.0000
  o =  0.6499  v =  0.0000  1.0000  0.0000  0.0000  0.0000  0.0000  0.0000  0.0000  0.0000  0.0000      0.0000  0.0000  0.0000  0.0000  0.0000  0.0000  0.0000  0.0000  0.0000  0.0000
  o =  0.6499  v =  0.0000  0.0000  1.0000  0.0000  0.0000  0.0000  0.0000  0.0000  0.0000  0.0000      0.0000  0.0000  0.0000  0.0000  0.0000  0.0000  0.0000  0.0000  0.0000  0.0000
  o =  0.6499  v =  0.0000  0.0000  0.0000  0.0000 -1.0000  0.0000  0.0000  0.0000  0.0000  0.0000      0.0000  0.0000  0.0000  0.0000  0.0000  0.0000  0.0000  0.0000  0.0000  0.0000
  o =  0.6499  v =  0.0000  0.0000  0.0000 -1.0000  0.0000  0.0000  0.0000  0.0000  0.0000  0.0000      0.0000  0.0000  0.0000  0.0000  0.0000  0.0000  0.0000  0.0000  0.0000  0.0000
atom =  21  type =  2  l = 2
 
 onsite density matrix
 
spin component  1
 
  0.6499  0.0000  0.0000  0.0000  0.0000
  0.0000  0.6499  0.0000  0.0000  0.0000
  0.0000  0.0000  0.6499  0.0000  0.0000
  0.0000  0.0000  0.0000  0.6499  0.0000
  0.0000  0.0000  0.0000  0.0000  0.6499
 
spin component  2
 
  0.4029  0.0000  0.0000  0.0000  0.0000
  0.0000  0.4029  0.0000  0.0000  0.0000
  0.0000  0.0000  0.4029  0.0000  0.0000
  0.0000  0.0000  0.0000  0.4029  0.0000
  0.0000  0.0000  0.0000  0.0000  0.4029
 
 occupancies and eigenvectors
 
  o =  0.4029  v =  0.0000  0.0000  0.0000  0.0000  0.0000  1.0000  0.0000  0.0000  0.0000  0.0000      0.0000  0.0000  0.0000  0.0000  0.0000  0.0000  0.0000  0.0000  0.0000  0.0000
  o =  0.4029  v =  0.0000  0.0000  0.0000  0.0000  0.0000  0.0000  1.0000  0.0000  0.0000  0.0000      0.0000  0.0000  0.0000  0.0000  0.0000  0.0000  0.0000  0.0000  0.0000  0.0000
  o =  0.4029  v =  0.0000  0.0000  0.0000  0.0000  0.0000  0.0000  0.0000  1.0000  0.0000  0.0000      0.0000  0.0000  0.0000  0.0000  0.0000  0.0000  0.0000  0.0000  0.0000  0.0000
  o =  0.4029  v =  0.0000  0.0000  0.0000  0.0000  0.0000  0.0000  0.0000  0.0000  0.0000 -1.0000      0.0000  0.0000  0.0000  0.0000  0.0000  0.0000  0.0000  0.0000  0.0000  0.0000
  o =  0.4029  v =  0.0000  0.0000  0.0000  0.0000  0.0000  0.0000  0.0000  0.0000 -1.0000  0.0000      0.0000  0.0000  0.0000  0.0000  0.0000  0.0000  0.0000  0.0000  0.0000  0.0000
  o =  0.6499  v =  1.0000  0.0000  0.0000  0.0000  0.0000  0.0000  0.0000  0.0000  0.0000  0.0000      0.0000  0.0000  0.0000  0.0000  0.0000  0.0000  0.0000  0.0000  0.0000  0.0000
  o =  0.6499  v =  0.0000  1.0000  0.0000  0.0000  0.0000  0.0000  0.0000  0.0000  0.0000  0.0000      0.0000  0.0000  0.0000  0.0000  0.0000  0.0000  0.0000  0.0000  0.0000  0.0000
  o =  0.6499  v =  0.0000  0.0000  1.0000  0.0000  0.0000  0.0000  0.0000  0.0000  0.0000  0.0000      0.0000  0.0000  0.0000  0.0000  0.0000  0.0000  0.0000  0.0000  0.0000  0.0000
  o =  0.6499  v =  0.0000  0.0000  0.0000  0.0000 -1.0000  0.0000  0.0000  0.0000  0.0000  0.0000      0.0000  0.0000  0.0000  0.0000  0.0000  0.0000  0.0000  0.0000  0.0000  0.0000
  o =  0.6499  v =  0.0000  0.0000  0.0000 -1.0000  0.0000  0.0000  0.0000  0.0000  0.0000  0.0000      0.0000  0.0000  0.0000  0.0000  0.0000  0.0000  0.0000  0.0000  0.0000  0.0000
atom =  22  type =  2  l = 2
 
 onsite density matrix
 
spin component  1
 
  0.6499  0.0000  0.0000  0.0000  0.0000
  0.0000  0.6499  0.0000  0.0000  0.0000
  0.0000  0.0000  0.6499  0.0000  0.0000
  0.0000  0.0000  0.0000  0.6499  0.0000
  0.0000  0.0000  0.0000  0.0000  0.6499
 
spin component  2
 
  0.4029  0.0000  0.0000  0.0000  0.0000
  0.0000  0.4029  0.0000  0.0000  0.0000
  0.0000  0.0000  0.4029  0.0000  0.0000
  0.0000  0.0000  0.0000  0.4029  0.0000
  0.0000  0.0000  0.0000  0.0000  0.4029
 
 occupancies and eigenvectors
 
  o =  0.4029  v =  0.0000  0.0000  0.0000  0.0000  0.0000  1.0000  0.0000  0.0000  0.0000  0.0000      0.0000  0.0000  0.0000  0.0000  0.0000  0.0000  0.0000  0.0000  0.0000  0.0000
[...]
   0.156E+03 0.299E-01 0.202E+03   -.168E+03 -.339E-01 -.218E+03   0.117E+02 0.334E-02 0.154E+02   -.737E-03 0.102E-02 0.324E-03
   0.156E+03 0.299E-01 0.202E+03   -.168E+03 -.339E-01 -.218E+03   0.117E+02 0.334E-02 0.154E+02   -.737E-03 0.102E-02 0.324E-03
   0.156E+03 0.299E-01 0.202E+03   -.168E+03 -.339E-01 -.218E+03   0.117E+02 0.334E-02 0.154E+02   -.737E-03 0.102E-02 0.324E-03
   0.156E+03 0.299E-01 0.202E+03   -.168E+03 -.339E-01 -.218E+03   0.117E+02 0.334E-02 0.154E+02   -.737E-03 0.102E-02 0.324E-03
   0.156E+03 0.299E-01 0.202E+03   -.168E+03 -.339E-01 -.218E+03   0.117E+02 0.334E-02 0.154E+02   -.737E-03 0.102E-02 0.324E-03
   -.782E+02 0.135E+03 0.202E+03   0.840E+02 -.146E+03 -.217E+03   -.585E+01 0.101E+02 0.154E+02   0.113E-02 0.220E-04 0.603E-03
   -.782E+02 0.135E+03 0.202E+03   0.840E+02 -.146E+03 -.217E+03   -.585E+01 0.101E+02 0.154E+02   0.113E-02 0.220E-04 0.603E-03
   -.782E+02 0.135E+03 0.202E+03   0.840E+02 -.146E+03 -.217E+03   -.585E+01 0.101E+02 0.154E+02   0.113E-02 0.220E-04 0.603E-03
   -.782E+02 0.135E+03 0.202E+03   0.840E+02 -.146E+03 -.217E+03   -.585E+01 0.101E+02 0.154E+02   0.113E-02 0.220E-04 0.603E-03
   -.782E+02 0.135E+03 0.202E+03   0.840E+02 -.146E+03 -.217E+03   -.585E+01 0.101E+02 0.154E+02   0.113E-02 0.220E-04 0.603E-03
   -.782E+02 0.135E+03 0.202E+03   0.840E+02 -.146E+03 -.217E+03   -.585E+01 0.101E+02 0.154E+02   0.113E-02 0.220E-04 0.603E-03
   -.782E+02 0.135E+03 0.202E+03   0.840E+02 -.146E+03 -.217E+03   -.585E+01 0.101E+02 0.154E+02   0.113E-02 0.220E-04 0.603E-03
   -.782E+02 0.135E+03 0.202E+03   0.840E+02 -.146E+03 -.217E+03   -.585E+01 0.101E+02 0.154E+02   0.113E-02 0.220E-04 0.603E-03
   -.156E+03 -.299E-01 -.202E+03   0.168E+03 0.339E-01 0.218E+03   -.117E+02 -.334E-02 -.154E+02   0.737E-03 -.102E-02 -.324E-03
   -.156E+03 -.299E-01 -.202E+03   0.168E+03 0.339E-01 0.218E+03   -.117E+02 -.334E-02 -.154E+02   0.737E-03 -.102E-02 -.324E-03
   -.156E+03 -.299E-01 -.202E+03   0.168E+03 0.339E-01 0.218E+03   -.117E+02 -.334E-02 -.154E+02   0.737E-03 -.102E-02 -.324E-03
   -.156E+03 -.299E-01 -.202E+03   0.168E+03 0.339E-01 0.218E+03   -.117E+02 -.334E-02 -.154E+02   0.737E-03 -.102E-02 -.324E-03
   -.156E+03 -.299E-01 -.202E+03   0.168E+03 0.339E-01 0.218E+03   -.117E+02 -.334E-02 -.154E+02   0.737E-03 -.102E-02 -.324E-03
   -.156E+03 -.299E-01 -.202E+03   0.168E+03 0.339E-01 0.218E+03   -.117E+02 -.334E-02 -.154E+02   0.737E-03 -.102E-02 -.324E-03
   -.156E+03 -.299E-01 -.202E+03   0.168E+03 0.339E-01 0.218E+03   -.117E+02 -.334E-02 -.154E+02   0.737E-03 -.102E-02 -.324E-03
   -.156E+03 -.299E-01 -.202E+03   0.168E+03 0.339E-01 0.218E+03   -.117E+02 -.334E-02 -.154E+02   0.737E-03 -.102E-02 -.324E-03
   0.782E+02 0.135E+03 -.202E+03   -.840E+02 -.145E+03 0.217E+03   0.586E+01 0.101E+02 -.154E+02   0.444E-03 0.741E-03 0.132E-03
   0.782E+02 0.135E+03 -.202E+03   -.840E+02 -.145E+03 0.217E+03   0.586E+01 0.101E+02 -.154E+02   0.444E-03 0.741E-03 0.132E-03
   0.782E+02 0.135E+03 -.202E+03   -.840E+02 -.145E+03 0.217E+03   0.586E+01 0.101E+02 -.154E+02   0.444E-03 0.741E-03 0.132E-03
   0.782E+02 0.135E+03 -.202E+03   -.840E+02 -.145E+03 0.217E+03   0.586E+01 0.101E+02 -.154E+02   0.444E-03 0.741E-03 0.132E-03
   0.782E+02 0.135E+03 -.202E+03   -.840E+02 -.145E+03 0.217E+03   0.586E+01 0.101E+02 -.154E+02   0.444E-03 0.741E-03 0.132E-03
   0.782E+02 0.135E+03 -.202E+03   -.840E+02 -.145E+03 0.217E+03   0.586E+01 0.101E+02 -.154E+02   0.444E-03 0.741E-03 0.132E-03
   0.782E+02 0.135E+03 -.202E+03   -.840E+02 -.145E+03 0.217E+03   0.586E+01 0.101E+02 -.154E+02   0.444E-03 0.741E-03 0.132E-03
   0.782E+02 0.135E+03 -.202E+03   -.840E+02 -.145E+03 0.217E+03   0.586E+01 0.101E+02 -.154E+02   0.444E-03 0.741E-03 0.132E-03
   0.782E+02 -.135E+03 -.202E+03   -.840E+02 0.146E+03 0.217E+03   0.585E+01 -.101E+02 -.154E+02   -.113E-02 -.220E-04 -.603E-03
   0.782E+02 -.135E+03 -.202E+03   -.840E+02 0.146E+03 0.217E+03   0.585E+01 -.101E+02 -.154E+02   -.113E-02 -.220E-04 -.603E-03
   0.782E+02 -.135E+03 -.202E+03   -.840E+02 0.146E+03 0.217E+03   0.585E+01 -.101E+02 -.154E+02   -.113E-02 -.220E-04 -.603E-03
   0.782E+02 -.135E+03 -.202E+03   -.840E+02 0.146E+03 0.217E+03   0.585E+01 -.101E+02 -.154E+02   -.113E-02 -.220E-04 -.603E-03
   0.782E+02 -.135E+03 -.202E+03   -.840E+02 0.146E+03 0.217E+03   0.585E+01 -.101E+02 -.154E+02   -.113E-02 -.220E-04 -.603E-03
   0.782E+02 -.135E+03 -.202E+03   -.840E+02 0.146E+03 0.217E+03   0.585E+01 -.101E+02 -.154E+02   -.113E-02 -.220E-04 -.603E-03
   0.782E+02 -.135E+03 -.202E+03   -.840E+02 0.146E+03 0.217E+03   0.585E+01 -.101E+02 -.154E+02   -.113E-02 -.220E-04 -.603E-03
   0.782E+02 -.135E+03 -.202E+03   -.840E+02 0.146E+03 0.217E+03   0.585E+01 -.101E+02 -.154E+02   -.113E-02 -.220E-04 -.603E-03
 -----------------------------------------------------------------------------------------------
   -.149E-10 0.209E-10 -.235E-09   -.739E-12 0.313E-12 0.131E-11   0.888E-14 0.178E-14 -.494E-12   -.472E-12 0.108E-11 -.173E-11
 
 
 POSITION                                       TOTAL-FORCE (eV/Angst)
 -----------------------------------------------------------------------------------
      0.00000      0.00000      0.00000         0.000000      0.000000      0.000000
     -0.00073      0.00066      4.11278         0.000000      0.000000      0.000000
     -2.49908      4.32853     -0.00114         0.000000      0.000000      0.000000
     -2.49982      4.32919      4.11164         0.000000      0.000000      0.000000
      4.99816      0.00000      0.00089         0.000000      0.000000      0.000000
      4.99742      0.00067      4.11368         0.000000      0.000000      0.000000
      2.49908      4.32853     -0.00025         0.000000      0.000000      0.000000
      2.49834      4.32920      4.11253         0.000000      0.000000      0.000000
     -0.00036      2.88602      2.05592        -0.001620     -0.000194     -0.000116
     -0.00110      2.88668      6.16870        -0.001620     -0.000194     -0.000116
     -2.49945      7.21454      2.05478        -0.001620     -0.000194     -0.000116
     -2.50018      7.21521      6.16756        -0.001620     -0.000194     -0.000116
      4.99779      2.88602      2.05681        -0.001620     -0.000194     -0.000116
      4.99706      2.88668      6.16960        -0.001620     -0.000194     -0.000116
      2.49871      7.21455      2.05567        -0.001620     -0.000194     -0.000116
      2.49798      7.21521      6.16845        -0.001620     -0.000194     -0.000116
      2.49871      1.44318      2.05661         0.001620      0.000194      0.000116
      2.49797      1.44384      6.16940         0.001620      0.000194      0.000116
     -0.00038      5.77171      2.05547         0.001620      0.000194      0.000116
     -0.00111      5.77237      6.16826         0.001620      0.000194      0.000116
      7.49686      1.44318      2.05751         0.001620      0.000194      0.000116
      7.49613      1.44385      6.17029         0.001620      0.000194      0.000116
      4.99778      5.77171      2.05636         0.001620      0.000194      0.000116
      4.99705      5.77237      6.16915         0.001620      0.000194      0.000116
      1.60652      2.78307      1.04560         0.006505      0.011178     -0.022810
      1.60578      2.78373      5.15838         0.006505      0.011178     -0.022810
     -0.89256      7.11160      1.04445         0.006505      0.011178     -0.022810
     -0.89330      7.11226      5.15724         0.006505      0.011178     -0.022810
      6.60468      2.78307      1.04649         0.006505      0.011178     -0.022810
      6.60394      2.78373      5.15927         0.006505      0.011178     -0.022810
      4.10559      7.11160      1.04535         0.006505      0.011178     -0.022810
      4.10486      7.11226      5.15813         0.006505      0.011178     -0.022810
      1.78456      0.00017      1.04608        -0.012232      0.000353     -0.022053
      1.78382      0.00083      5.15886        -0.012232      0.000353     -0.022053
     -0.71453      4.32870      1.04493        -0.012232      0.000353     -0.022053
     -0.71526      4.32936      5.15772        -0.012232      0.000353     -0.022053
      6.78271      0.00017      1.04697        -0.012232      0.000353     -0.022053
      6.78198      0.00084      5.15975        -0.012232      0.000353     -0.022053
      4.28363      4.32870      1.04583        -0.012232      0.000353     -0.022053
      4.28290      4.32936      5.15861        -0.012232      0.000353     -0.022053
     -0.89256      1.54580      1.04535         0.006004     -0.009723     -0.025305
     -0.89329      1.54646      5.15813         0.006004     -0.009723     -0.025305
     -3.39164      5.87433      1.04421         0.006004     -0.009723     -0.025305
     -3.39238      5.87499      5.15699         0.006004     -0.009723     -0.025305
      4.10560      1.54580      1.04624         0.006004     -0.009723     -0.025305
      4.10486      1.54646      5.15903         0.006004     -0.009723     -0.025305
      1.60652      5.87433      1.04510         0.006004     -0.009723     -0.025305
      1.60578      5.87499      5.15788         0.006004     -0.009723     -0.025305
      3.21287      0.00050      3.06760         0.012232     -0.000353      0.022053
      3.21213      0.00116      7.18038         0.012232     -0.000353      0.022053
      0.71379      4.32903      3.06646         0.012232     -0.000353      0.022053
      0.71305      4.32969      7.17924         0.012232     -0.000353      0.022053
      8.21103      0.00050      3.06849         0.012232     -0.000353      0.022053
      8.21029      0.00116      7.18128         0.012232     -0.000353      0.022053
      5.71194      4.32903      3.06735         0.012232     -0.000353      0.022053
      5.71121      4.32969      7.18013         0.012232     -0.000353      0.022053
      0.89182      1.54613      3.06694        -0.006505     -0.011178      0.022810
      0.89109      1.54679      7.17972        -0.006505     -0.011178      0.022810
     -1.60726      5.87466      3.06579        -0.006505     -0.011178      0.022810
     -1.60799      5.87532      7.17858        -0.006505     -0.011178      0.022810
      5.88998      1.54613      3.06783        -0.006505     -0.011178      0.022810
      5.88925      1.54679      7.18061        -0.006505     -0.011178      0.022810
      3.39090      5.87466      3.06669        -0.006505     -0.011178      0.022810
      3.39016      5.87532      7.17947        -0.006505     -0.011178      0.022810
     -1.60726      2.78339      3.06629        -0.006004      0.009723      0.025305
     -1.60799      2.78405      7.17908        -0.006004      0.009723      0.025305
     -4.10634      7.11192      3.06515        -0.006004      0.009723      0.025305
     -4.10707      7.11258      7.17793        -0.006004      0.009723      0.025305
      3.39090      2.78340      3.06718        -0.006004      0.009723      0.025305
      3.39017      2.78406      7.17997        -0.006004      0.009723      0.025305
      0.89182      7.11193      3.06604        -0.006004      0.009723      0.025305
      0.89108      7.11259      7.17883        -0.006004      0.009723      0.025305
 -----------------------------------------------------------------------------------
    total drift:                               -0.000000      0.000000     -0.000000


--------------------------------------------------------------------------------------------------------



  FREE ENERGIE OF THE ION-ELECTRON SYSTEM (eV)
  ---------------------------------------------------
  free  energy   TOTEN  =      -442.49177984 eV

  energy  without entropy=     -442.49177984  energy(sigma->0) =     -442.49177984
 


--------------------------------------------------------------------------------------------------------


    POTLOK:  cpu time    1.2280: real time    1.2352


--------------------------------------------------------------------------------------------------------


     LOOP+:  cpu time 2442.4133: real time 2462.4884
    4ORBIT:  cpu time    0.0000: real time    0.0000
 


 total charge     
 
# of ion       s       p       d       tot
------------------------------------------
    1        2.015   0.047   0.000   2.063
    2        2.015   0.047   0.000   2.063
    3        2.015   0.047   0.000   2.063
    4        2.015   0.047   0.000   2.063
    5        2.015   0.047   0.000   2.063
    6        2.015   0.047   0.000   2.063
    7        2.015   0.047   0.000   2.063
    8        2.015   0.047   0.000   2.063
    9        0.365   6.486   4.833  11.684
   10        0.365   6.486   4.833  11.684
   11        0.365   6.486   4.833  11.684
   12        0.365   6.486   4.833  11.684
   13        0.365   6.486   4.833  11.684
   14        0.365   6.486   4.833  11.684
   15        0.365   6.486   4.833  11.684
   16        0.365   6.486   4.833  11.684
   17        0.365   6.486   4.833  11.684
   18        0.365   6.486   4.833  11.684
   19        0.365   6.486   4.833  11.684
   20        0.365   6.486   4.833  11.684
   21        0.365   6.486   4.833  11.684
   22        0.365   6.486   4.833  11.684
   23        0.365   6.486   4.833  11.684
   24        0.365   6.486   4.833  11.684
   25        1.593   3.322   0.000   4.915
   26        1.593   3.322   0.000   4.915
   27        1.593   3.322   0.000   4.915
   28        1.593   3.322   0.000   4.915
   29        1.593   3.322   0.000   4.915
   30        1.593   3.322   0.000   4.915
   31        1.593   3.322   0.000   4.915
   32        1.593   3.322   0.000   4.915
   33        1.593   3.322   0.000   4.915
   34        1.593   3.322   0.000   4.915
   35        1.593   3.322   0.000   4.915
   36        1.593   3.322   0.000   4.915
   37        1.593   3.322   0.000   4.915
   38        1.593   3.322   0.000   4.915
   39        1.593   3.322   0.000   4.915
   40        1.593   3.322   0.000   4.915
   41        1.593   3.322   0.000   4.915
   42        1.593   3.322   0.000   4.915
   43        1.593   3.322   0.000   4.915
   44        1.593   3.322   0.000   4.915
   45        1.593   3.322   0.000   4.915
   46        1.593   3.322   0.000   4.915
   47        1.593   3.322   0.000   4.915
   48        1.593   3.322   0.000   4.915
   49        1.593   3.322   0.000   4.915
   50        1.593   3.322   0.000   4.915
   51        1.593   3.322   0.000   4.915
   52        1.593   3.322   0.000   4.915
   53        1.593   3.322   0.000   4.915
   54        1.593   3.322   0.000   4.915
   55        1.593   3.322   0.000   4.915
   56        1.593   3.322   0.000   4.915
   57        1.593   3.322   0.000   4.915
   58        1.593   3.322   0.000   4.915
   59        1.593   3.322   0.000   4.915
   60        1.593   3.322   0.000   4.915
   61        1.593   3.322   0.000   4.915
   62        1.593   3.322   0.000   4.915
   63        1.593   3.322   0.000   4.915
   64        1.593   3.322   0.000   4.915
   65        1.593   3.322   0.000   4.915
   66        1.593   3.322   0.000   4.915
   67        1.593   3.322   0.000   4.915
   68        1.593   3.322   0.000   4.915
   69        1.593   3.322   0.000   4.915
   70        1.593   3.322   0.000   4.915
   71        1.593   3.322   0.000   4.915
   72        1.593   3.322   0.000   4.915
--------------------------------------------------
tot         98.437 263.590  77.329 439.356
 


 magnetization (x)
 
# of ion       s       p       d       tot
------------------------------------------
    1        0.001   0.002   0.000   0.003
    2        0.001   0.002   0.000   0.003
    3        0.001   0.002   0.000   0.003
    4        0.001   0.002   0.000   0.003
    5        0.001   0.002   0.000   0.003
    6        0.001   0.002   0.000   0.003
    7        0.001   0.002   0.000   0.003
    8        0.001   0.002   0.000   0.003
    9        0.028   0.045   2.974   3.046
   10        0.028   0.045   2.974   3.046
   11        0.028   0.045   2.974   3.046
   12        0.028   0.045   2.974   3.046
   13        0.028   0.045   2.974   3.046
   14        0.028   0.045   2.974   3.046
   15        0.028   0.045   2.974   3.046
   16        0.028   0.045   2.974   3.046
   17        0.028   0.045   2.974   3.046
   18        0.028   0.045   2.974   3.046
   19        0.028   0.045   2.974   3.046
   20        0.028   0.045   2.974   3.046
   21        0.028   0.045   2.974   3.046
   22        0.028   0.045   2.974   3.046
   23        0.028   0.045   2.974   3.046
   24        0.028   0.045   2.974   3.046
   25       -0.006  -0.450   0.000  -0.457
   26       -0.006  -0.450   0.000  -0.457
   27       -0.006  -0.450   0.000  -0.457
   28       -0.006  -0.450   0.000  -0.457
   29       -0.006  -0.450   0.000  -0.457
   30       -0.006  -0.450   0.000  -0.457
   31       -0.006  -0.450   0.000  -0.457
   32       -0.006  -0.450   0.000  -0.457
   33       -0.006  -0.451   0.000  -0.457
   34       -0.006  -0.451   0.000  -0.457
   35       -0.006  -0.451   0.000  -0.457
   36       -0.006  -0.451   0.000  -0.457
   37       -0.006  -0.451   0.000  -0.457
   38       -0.006  -0.451   0.000  -0.457
   39       -0.006  -0.451   0.000  -0.457
   40       -0.006  -0.451   0.000  -0.457
   41       -0.006  -0.451   0.000  -0.457
   42       -0.006  -0.451   0.000  -0.457
   43       -0.006  -0.451   0.000  -0.457
   44       -0.006  -0.451   0.000  -0.457
   45       -0.006  -0.451   0.000  -0.457
   46       -0.006  -0.451   0.000  -0.457
   47       -0.006  -0.451   0.000  -0.457
   48       -0.006  -0.451   0.000  -0.457
   49       -0.006  -0.451   0.000  -0.457
   50       -0.006  -0.451   0.000  -0.457
   51       -0.006  -0.451   0.000  -0.457
   52       -0.006  -0.451   0.000  -0.457
   53       -0.006  -0.451   0.000  -0.457
   54       -0.006  -0.451   0.000  -0.457
   55       -0.006  -0.451   0.000  -0.457
   56       -0.006  -0.451   0.000  -0.457
   57       -0.006  -0.450   0.000  -0.457
   58       -0.006  -0.450   0.000  -0.457
   59       -0.006  -0.450   0.000  -0.457
   60       -0.006  -0.450   0.000  -0.457
   61       -0.006  -0.450   0.000  -0.457
   62       -0.006  -0.450   0.000  -0.457
   63       -0.006  -0.450   0.000  -0.457
   64       -0.006  -0.450   0.000  -0.457
   65       -0.006  -0.451   0.000  -0.457
   66       -0.006  -0.451   0.000  -0.457
   67       -0.006  -0.451   0.000  -0.457
   68       -0.006  -0.451   0.000  -0.457
   69       -0.006  -0.451   0.000  -0.457
   70       -0.006  -0.451   0.000  -0.457
   71       -0.006  -0.451   0.000  -0.457
   72       -0.006  -0.451   0.000  -0.457
--------------------------------------------------
tot          0.147 -20.884  47.582  26.845
 
 BZINTS: Fermi energy:  2.403160;520.000000 electrons
         Band energy:***********;  BLOECHL correction: -0.006929

 total amount of memory used by VASP MPI-rank0   254398. kBytes
=======================================================================

   base      :      30000. kBytes
   nonlr-proj:      37593. kBytes
   fftplans  :       5472. kBytes
   grid      :      41200. kBytes
   one-center:       2239. kBytes
   wavefun   :     137894. kBytes
 
  
  
 General timing and accounting informations for this job:
 ========================================================
  
                  Total CPU time used (sec):     2485.016
                            User time (sec):     2463.900
                          System time (sec):       21.116
                         Elapsed time (sec):     2505.938
  
                   Maximum memory used (kb):      370812.
                   Average memory used (kb):           0.
  
                          Minor page faults:       862488
                          Major page faults:            0
                 Voluntary context switches:         2914
