 vasp.5.4.4.18Apr17-6-g9f103f2a35 (build Dec 07 2017 12:23:07) complex          
  
 executed on     UA-Leibniz-2016b date 2018.11.06  12:41:17
 running on  112 total cores
 distrk:  each k-point on   14 cores,    8 groups
 distr:  one band on NCORES_PER_BAND=   1 cores,   14 groups


--------------------------------------------------------------------------------------------------------


 INCAR:
 POTCAR:    PAW_PBE Li_sv 10Sep2004               
 POTCAR:    PAW_PBE Ir 06Sep2000                  
 POTCAR:    PAW_PBE O 08Apr2002                   

 ----------------------------------------------------------------------------- 
|                                                                             |
|           W    W    AA    RRRRR   N    N  II  N    N   GGGG   !!!           |
|           W    W   A  A   R    R  NN   N  II  NN   N  G    G  !!!           |
|           W    W  A    A  R    R  N N  N  II  N N  N  G       !!!           |
|           W WW W  AAAAAA  RRRRR   N  N N  II  N  N N  G  GGG   !            |
|           WW  WW  A    A  R   R   N   NN  II  N   NN  G    G                |
|           W    W  A    A  R    R  N    N  II  N    N   GGGG   !!!           |
|                                                                             |
|      For optimal performance we recommend to set                            |
|        NCORE= 4 - approx SQRT( number of cores)                             |
|      NCORE specifies how many cores store one orbital (NPAR=cpu/NCORE).     |
|      This setting can  greatly improve the performance of VASP for DFT.     |
|      The default,   NCORE=1            might be grossly inefficient         |
|      on modern multi-core architectures or massively parallel machines.     |
|      Do your own testing !!!!                                               |
|      Unfortunately you need to use the default for GW and RPA calculations. |
|      (for HF NCORE is supported but not extensively tested yet)             |
|                                                                             |
 ----------------------------------------------------------------------------- 


 ----------------------------------------------------------------------------- 
|                                                                             |
|           W    W    AA    RRRRR   N    N  II  N    N   GGGG   !!!           |
|           W    W   A  A   R    R  NN   N  II  NN   N  G    G  !!!           |
|           W    W  A    A  R    R  N N  N  II  N N  N  G       !!!           |
|           W WW W  AAAAAA  RRRRR   N  N N  II  N  N N  G  GGG   !            |
|           WW  WW  A    A  R   R   N   NN  II  N   NN  G    G                |
|           W    W  A    A  R    R  N    N  II  N    N   GGGG   !!!           |
|                                                                             |
|      You have enabled k-point parallelism (KPAR>1).                         |
|      This developmental code was originally  written by Paul Kent at ORNL,  |
|      and carefully double checked in Vienna.                                |
|      GW as well as linear response parallelism added by Martijn Marsman     |
|      and Georg Kresse.                                                      |
|      Carefully verify results versus KPAR=1.                                |
|      Report problems to Paul Kent and Vienna.                               |
|                                                                             |
 ----------------------------------------------------------------------------- 

 POTCAR:    PAW_PBE Li_sv 10Sep2004               
   VRHFIN =Li: 1s2s2p                                                           
   LEXCH  = PE                                                                  
   EATOM  =   202.7858 eV,   14.9043 Ry                                         
                                                                                
   TITEL  = PAW_PBE Li_sv 10Sep2004                                             
   LULTRA =        F    use ultrasoft PP ?                                      
   IUNSCR =        0    unscreen: 0-lin 1-nonlin 2-no                           
   RPACOR =    0.000    partial core radius                                     
   POMASS =    7.010; ZVAL   =    3.000    mass and valenz                      
   RCORE  =    1.700    outmost cutoff radius                                   
   RWIGS  =    2.050; RWIGS  =    1.085    wigner-seitz radius (au A)           
   ENMAX  =  499.034; ENMIN  =  374.276 eV                                      
   ICORE  =        2    local potential                                         
   LCOR   =        T    correct aug charges                                     
   LPAW   =        T    paw PP                                                  
   EAUG   =  628.945                                                            
   RMAX   =    1.732    core radius for proj-oper                               
   RAUG   =    1.300    factor for augmentation sphere                          
   RDEP   =    1.728    radius for radial grids                                 
   RDEPT  =    1.329    core radius for aug-charge                              
                                                                                
   Atomic configuration                                                         
    4 entries                                                                   
     n  l   j            E        occ.                                          
     1  0  0.50       -51.8549   2.0000                                         
     2  0  0.50        -2.8742   1.0000                                         
     2  1  0.50        -1.3606   0.0000                                         
     3  2  1.50        -1.3606   0.0000                                         
   Description                                                                  
     l       E           TYP  RCUT    TYP  RCUT                                 
     0    -51.8548813     23  1.400                                             
     0     -2.8742052     23  1.700                                             
     1     -1.3605826     23  1.400                                             
     2     -1.3605826     23  1.400                                             
  local pseudopotential read in
  atomic valenz-charges read in
  non local Contribution for L=           0  read in
    real space projection operators read in
  non local Contribution for L=           0  read in
    real space projection operators read in
  non local Contribution for L=           1  read in
    real space projection operators read in
    PAW grid and wavefunctions read in
 
   number of l-projection  operators is LMAX  =           3
   number of lm-projection operators is LMMAX =           5
 
 POTCAR:    PAW_PBE Ir 06Sep2000                  
   VRHFIN =Ir: s1d8                                                             
   LEXCH  = PE                                                                  
   EATOM  =   560.1833 eV,   41.1723 Ry                                         
                                                                                
   TITEL  = PAW_PBE Ir 06Sep2000                                                
   LULTRA =        F    use ultrasoft PP ?                                      
   IUNSCR =        1    unscreen: 0-lin 1-nonlin 2-no                           
   RPACOR =    2.250    partial core radius                                     
   POMASS =  192.220; ZVAL   =    9.000    mass and valenz                      
   RCORE  =    2.600    outmost cutoff radius                                   
   RWIGS  =    2.690; RWIGS  =    1.423    wigner-seitz radius (au A)           
   ENMAX  =  210.864; ENMIN  =  158.148 eV                                      
   RCLOC  =    1.857    cutoff for local pot                                    
   LCOR   =        T    correct aug charges                                     
   LPAW   =        T    paw PP                                                  
   EAUG   =  318.962                                                            
   DEXC   =    0.000                                                            
   RMAX   =    2.667    core radius for proj-oper                               
   RAUG   =    1.300    factor for augmentation sphere                          
   RDEP   =    2.748    radius for radial grids                                 
   RDEPT  =    2.300    core radius for aug-charge                              
                                                                                
   Atomic configuration                                                         
   16 entries                                                                   
     n  l   j            E        occ.                                          
     1  0  0.50    -76100.0449   2.0000                                         
     2  0  0.50    -13308.1683   2.0000                                         
     2  1  1.50    -11558.0021   6.0000                                         
     3  0  0.50     -3110.7274   2.0000                                         
     3  1  1.50     -2599.2109   6.0000                                         
     3  2  2.50     -2037.1515  10.0000                                         
     4  0  0.50      -661.6001   2.0000                                         
     4  1  1.50      -493.8981   6.0000                                         
     4  2  2.50      -288.1909  10.0000                                         
     4  3  3.50       -59.5718  14.0000                                         
     5  0  0.50       -95.3879   2.0000                                         
     5  1  1.50       -52.2747   6.0000                                         
     5  2  2.50        -5.4180   8.0000                                         
     6  0  0.50        -5.5479   1.0000                                         
     6  1  1.50        -6.8029   0.0000                                         
     5  3  2.50        -1.3606   0.0000                                         
   Description                                                                  
     l       E           TYP  RCUT    TYP  RCUT                                 
     2     -5.4179967     23  2.600                                             
     2     -6.7785793     23  2.600                                             
     0     -5.5478636     23  2.600                                             
     0      2.2542272     23  2.600                                             
     1     -2.7211652     23  2.600                                             
     1     20.4087390     23  2.600                                             
  local pseudopotential read in
  partial core-charges read in
  partial kinetic energy density read in
  atomic valenz-charges read in
  non local Contribution for L=           2  read in
    real space projection operators read in
  non local Contribution for L=           2  read in
    real space projection operators read in
  non local Contribution for L=           0  read in
    real space projection operators read in
  non local Contribution for L=           0  read in
    real space projection operators read in
  non local Contribution for L=           1  read in
    real space projection operators read in
  non local Contribution for L=           1  read in
    real space projection operators read in
    PAW grid and wavefunctions read in
 
   number of l-projection  operators is LMAX  =           6
   number of lm-projection operators is LMMAX =          18
 
 POTCAR:    PAW_PBE O 08Apr2002                   
   VRHFIN =O: s2p4                                                              
   LEXCH  = PE                                                                  
   EATOM  =   432.3788 eV,   31.7789 Ry                                         
                                                                                
   TITEL  = PAW_PBE O 08Apr2002                                                 
   LULTRA =        F    use ultrasoft PP ?                                      
   IUNSCR =        1    unscreen: 0-lin 1-nonlin 2-no                           
   RPACOR =    1.200    partial core radius                                     
   POMASS =   16.000; ZVAL   =    6.000    mass and valenz                      
   RCORE  =    1.520    outmost cutoff radius                                   
   RWIGS  =    1.550; RWIGS  =    0.820    wigner-seitz radius (au A)           
   ENMAX  =  400.000; ENMIN  =  300.000 eV                                      
   ICORE  =        2    local potential                                         
   LCOR   =        T    correct aug charges                                     
   LPAW   =        T    paw PP                                                  
   EAUG   =  605.392                                                            
   DEXC   =    0.000                                                            
   RMAX   =    1.553    core radius for proj-oper                               
   RAUG   =    1.300    factor for augmentation sphere                          
   RDEP   =    1.550    radius for radial grids                                 
   RDEPT  =    1.329    core radius for aug-charge                              
                                                                                
   Atomic configuration                                                         
    4 entries                                                                   
     n  l   j            E        occ.                                          
     1  0  0.50      -514.6923   2.0000                                         
     2  0  0.50       -23.9615   2.0000                                         
     2  1  0.50        -9.0305   4.0000                                         
     3  2  1.50        -9.5241   0.0000                                         
   Description                                                                  
     l       E           TYP  RCUT    TYP  RCUT                                 
     0    -23.9615318     23  1.200                                             
     0     -9.5240782     23  1.200                                             
     1     -9.0304911     23  1.520                                             
     1      8.1634956     23  1.520                                             
     2     -9.5240782      7  1.500                                             
  local pseudopotential read in
  partial core-charges read in
  partial kinetic energy density read in
  kinetic energy density of atom read in
  atomic valenz-charges read in
  non local Contribution for L=           0  read in
    real space projection operators read in
  non local Contribution for L=           0  read in
    real space projection operators read in
  non local Contribution for L=           1  read in
    real space projection operators read in
  non local Contribution for L=           1  read in
    real space projection operators read in
    PAW grid and wavefunctions read in
 
   number of l-projection  operators is LMAX  =           4
   number of lm-projection operators is LMMAX =           8
 
 Optimization of the real space projectors (new method)

 maximal supplied QI-value         = 22.11
 optimisation between [QCUT,QGAM] = [ 11.28, 22.77] = [ 35.61,145.23] Ry 
 Optimized for a Real-space Cutoff    1.07 Angstroem

   l    n(q)    QCUT    max X(q) W(low)/X(q) W(high)/X(q)  e(spline) 
   0      7    11.276    10.506    0.35E-04    0.79E-04    0.14E-07
   0      7    11.276     8.367    0.77E-04    0.18E-03    0.29E-07
   1      7    11.276     8.983    0.48E-03    0.57E-03    0.79E-07
 Optimization of the real space projectors (new method)

 maximal supplied QI-value         = 14.36
 optimisation between [QCUT,QGAM] = [ 11.35, 22.84] = [ 36.05,146.02] Ry 
 Optimized for a Real-space Cutoff    1.52 Angstroem

   l    n(q)    QCUT    max X(q) W(low)/X(q) W(high)/X(q)  e(spline) 
   2      9    11.346   134.116    0.47E-03    0.13E-03    0.92E-06
   2      9    11.346   130.192    0.47E-03    0.13E-03    0.92E-06
   0     10    11.346    60.310    0.74E-04    0.13E-03    0.69E-06
   0     10    11.346    39.218    0.68E-04    0.12E-03    0.65E-06
   1     10    11.346    18.439    0.15E-03    0.34E-04    0.20E-06
   1     10    11.346    12.760    0.12E-03    0.31E-04    0.16E-06
 Optimization of the real space projectors (new method)

 maximal supplied QI-value         = 24.76
 optimisation between [QCUT,QGAM] = [ 11.39, 22.77] = [ 36.31,145.25] Ry 
 Optimized for a Real-space Cutoff    1.00 Angstroem

   l    n(q)    QCUT    max X(q) W(low)/X(q) W(high)/X(q)  e(spline) 
   0      7    11.387    20.381    0.39E-03    0.13E-02    0.15E-06
   0      7    11.387    15.268    0.42E-03    0.14E-02    0.17E-06
   1      6    11.387     5.964    0.41E-03    0.11E-02    0.17E-06
   1      6    11.387     5.382    0.39E-03    0.87E-03    0.15E-06
  PAW_PBE Li_sv 10Sep2004               :
 energy of atom  1       EATOM= -202.7858
 kinetic energy error for atom=    0.0143 (will be added to EATOM!!)
  PAW_PBE Ir 06Sep2000                  :
 energy of atom  2       EATOM= -560.1833
 kinetic energy error for atom=    0.0018 (will be added to EATOM!!)
  PAW_PBE O 08Apr2002                   :
 energy of atom  3       EATOM= -432.3788
 kinetic energy error for atom=    0.0224 (will be added to EATOM!!)
 
 
 POSCAR: Li1 Ir2 O6                              
  positions in direct lattice
  velocities in cartesian coordinates
 exchange correlation table for  LEXCH =        8
   RHO(1)=    0.500       N(1)  =     2000
   RHO(2)=  100.500       N(2)  =     4000
 


--------------------------------------------------------------------------------------------------------


 ion  position               nearest neighbor table
   1  0.000  0.000  0.000-   5 2.20   6 2.20   7 2.20   9 2.20   8 2.20   4 2.20
   2  0.333  0.667  0.500-   5 1.95   9 1.95   7 1.95   6 1.95   8 1.95   4 1.95   3 2.98   3 2.98
                             3 2.98
   3  0.667  0.333  0.500-   6 1.95   7 1.95   5 1.95   9 1.95   8 1.95   4 1.95   2 2.98   2 2.98
                             2 2.98
   4  0.356  0.356  0.728-   2 1.95   3 1.95   1 2.20
   5  0.000  0.644  0.728-   2 1.95   3 1.95   1 2.20
   6  0.644  0.000  0.728-   3 1.95   2 1.95   1 2.20
   7  1.000  0.356  0.272-   3 1.95   2 1.95   1 2.20
   8  0.644  0.644  0.272-   2 1.95   3 1.95   1 2.20
   9  0.356  1.000  0.272-   2 1.95   3 1.95   1 2.20
 
  LATTYP: Found a hexagonal cell.
 ALAT       =     5.1583498944
 C/A-ratio  =     0.8605395763
  
  Lattice vectors:
  
 A1 = (   2.5791749472,  -4.4672614266,   0.0000000000)
 A2 = (   2.5791749472,   4.4672614266,   0.0000000000)
 A3 = (   0.0000000000,   0.0000000000,   4.4389642326)


Analysis of symmetry for initial positions (statically):
=====================================================================
 Subroutine PRICEL returns:
 Original cell was already a primitive cell.
 

 Routine SETGRP: Setting up the symmetry group for a 
 hexagonal supercell.


 Subroutine GETGRP returns: Found 12 space group operations
 (whereof 12 operations were pure point group operations)
 out of a pool of 24 trial point group operations.


The static configuration has the point symmetry D_3d.


Analysis of symmetry for dynamics (positions and initial velocities):
=====================================================================
 Subroutine PRICEL returns:
 Original cell was already a primitive cell.
 

 Routine SETGRP: Setting up the symmetry group for a 
 hexagonal supercell.


 Subroutine GETGRP returns: Found 12 space group operations
 (whereof 12 operations were pure point group operations)
 out of a pool of 24 trial point group operations.


The dynamic configuration has the point symmetry D_3d.


Analysis of structural, dynamic, and magnetic symmetry:
=====================================================================
 Subroutine PRICEL returns:
 Original cell was already a primitive cell.
 

 Routine SETGRP: Setting up the symmetry group for a 
 hexagonal supercell.


 Subroutine GETGRP returns: Found 12 space group operations
 (whereof 12 operations were pure point group operations)
 out of a pool of 24 trial point group operations.


The magnetic configuration has the point symmetry D_3d.


 Subroutine INISYM returns: Found 12 space group operations
 (whereof 12 operations are pure point group operations),
 and found     1 'primitive' translations

 
 
 KPOINTS: pymatgen 4.7.6+ generated KPOINTS with g

Automatic generation of k-mesh.
Space group operators:
 irot       det(A)        alpha          n_x          n_y          n_z        tau_x        tau_y        tau_z
    1     1.000000     0.000000     1.000000     0.000000     0.000000     0.000000     0.000000     0.000000
    2    -1.000000     0.000000     1.000000     0.000000     0.000000     0.000000     0.000000     0.000000
    3     1.000000   120.000000     0.000000     0.000000    -1.000000     0.000000     0.000000     0.000000
    4    -1.000000   120.000000     0.000000     0.000000    -1.000000     0.000000     0.000000     0.000000
    5     1.000000   120.000000     0.000000     0.000000     1.000000     0.000000     0.000000     0.000000
    6    -1.000000   120.000000     0.000000     0.000000     1.000000     0.000000     0.000000     0.000000
    7     1.000000   180.000000    -0.000000     1.000000     0.000000     0.000000     0.000000     0.000000
    8    -1.000000   180.000000    -0.000000     1.000000     0.000000     0.000000     0.000000     0.000000
    9     1.000000   180.000000     0.866025     0.500000     0.000000     0.000000     0.000000     0.000000
   10    -1.000000   180.000000     0.866025     0.500000     0.000000     0.000000     0.000000     0.000000
   11     1.000000   180.000000     0.866025    -0.500000     0.000000     0.000000     0.000000     0.000000
   12    -1.000000   180.000000     0.866025    -0.500000     0.000000     0.000000     0.000000     0.000000
 
 Subroutine IBZKPT returns following result:
 ===========================================
 
 Found     37 irreducible k-points:
 
 Following reciprocal coordinates:
            Coordinates               Weight
  0.000000  0.000000  0.000000      1.000000
  0.166667  0.000000  0.000000      6.000000
  0.333333 -0.000000  0.000000      6.000000
  0.500000 -0.000000  0.000000      3.000000
  0.166667  0.166667  0.000000      6.000000
  0.333333  0.166667  0.000000     12.000000
  0.333333  0.333333  0.000000      2.000000
  0.000000  0.000000  0.142857      2.000000
  0.166667  0.000000  0.142857     12.000000
  0.333333 -0.000000  0.142857     12.000000
  0.500000 -0.000000  0.142857      6.000000
  0.166667  0.166667  0.142857      6.000000
  0.333333  0.166667  0.142857     12.000000
  0.333333  0.333333  0.142857      2.000000
 -0.166667  0.333333  0.142857      6.000000
 -0.333333  0.500000  0.142857     12.000000
 -0.333333 -0.333333  0.142857      2.000000
  0.000000  0.000000  0.285714      2.000000
  0.166667  0.000000  0.285714     12.000000
  0.333333 -0.000000  0.285714     12.000000
  0.500000 -0.000000  0.285714      6.000000
  0.166667  0.166667  0.285714      6.000000
  0.333333  0.166667  0.285714     12.000000
  0.333333  0.333333  0.285714      2.000000
 -0.166667  0.333333  0.285714      6.000000
 -0.333333  0.500000  0.285714     12.000000
 -0.333333 -0.333333  0.285714      2.000000
  0.000000  0.000000  0.428571      2.000000
  0.166667  0.000000  0.428571     12.000000
  0.333333 -0.000000  0.428571     12.000000
  0.500000 -0.000000  0.428571      6.000000
  0.166667  0.166667  0.428571      6.000000
  0.333333  0.166667  0.428571     12.000000
  0.333333  0.333333  0.428571      2.000000
 -0.166667  0.333333  0.428571      6.000000
 -0.333333  0.500000  0.428571     12.000000
 -0.333333 -0.333333  0.428571      2.000000
 
 Following cartesian coordinates:
            Coordinates               Weight
  0.000000  0.000000  0.000000      1.000000
  0.032310 -0.018654  0.000000      6.000000
  0.064620 -0.037308  0.000000      6.000000
  0.096930 -0.055963  0.000000      3.000000
  0.064620  0.000000  0.000000      6.000000
  0.096930 -0.018654  0.000000     12.000000
  0.129240  0.000000  0.000000      2.000000
  0.000000  0.000000  0.032183      2.000000
  0.032310 -0.018654  0.032183     12.000000
  0.064620 -0.037308  0.032183     12.000000
  0.096930 -0.055963  0.032183      6.000000
  0.064620  0.000000  0.032183      6.000000
  0.096930 -0.018654  0.032183     12.000000
  0.129240  0.000000  0.032183      2.000000
  0.032310  0.055963  0.032183      6.000000
  0.032310  0.093271  0.032183     12.000000
 -0.129240  0.000000  0.032183      2.000000
  0.000000  0.000000  0.064365      2.000000
  0.032310 -0.018654  0.064365     12.000000
  0.064620 -0.037308  0.064365     12.000000
  0.096930 -0.055963  0.064365      6.000000
  0.064620  0.000000  0.064365      6.000000
  0.096930 -0.018654  0.064365     12.000000
  0.129240  0.000000  0.064365      2.000000
  0.032310  0.055963  0.064365      6.000000
  0.032310  0.093271  0.064365     12.000000
 -0.129240  0.000000  0.064365      2.000000
  0.000000  0.000000  0.096548      2.000000
  0.032310 -0.018654  0.096548     12.000000
  0.064620 -0.037308  0.096548     12.000000
  0.096930 -0.055963  0.096548      6.000000
  0.064620  0.000000  0.096548      6.000000
  0.096930 -0.018654  0.096548     12.000000
  0.129240  0.000000  0.096548      2.000000
  0.032310  0.055963  0.096548      6.000000
  0.032310  0.093271  0.096548     12.000000
 -0.129240  0.000000  0.096548      2.000000
 
 
 Subroutine IBZKPT_HF returns following result:
 ==============================================
 
 Found    252 k-points in 1st BZ
 the following    252 k-points will be used (e.g. in the exchange kernel)
 Following reciprocal coordinates:   # in IRBZ
  0.000000  0.000000  0.000000    0.00396825   1 t-inv F
  0.166667  0.000000  0.000000    0.00396825   2 t-inv F
  0.333333 -0.000000  0.000000    0.00396825   3 t-inv F
  0.500000 -0.000000  0.000000    0.00396825   4 t-inv F
  0.166667  0.166667  0.000000    0.00396825   5 t-inv F
  0.333333  0.166667  0.000000    0.00396825   6 t-inv F
  0.333333  0.333333  0.000000    0.00396825   7 t-inv F
  0.000000  0.000000  0.142857    0.00396825   8 t-inv F
  0.166667  0.000000  0.142857    0.00396825   9 t-inv F
  0.333333 -0.000000  0.142857    0.00396825  10 t-inv F
  0.500000 -0.000000  0.142857    0.00396825  11 t-inv F
  0.166667  0.166667  0.142857    0.00396825  12 t-inv F
  0.333333  0.166667  0.142857    0.00396825  13 t-inv F
  0.333333  0.333333  0.142857    0.00396825  14 t-inv F
 -0.166667  0.333333  0.142857    0.00396825  15 t-inv F
 -0.333333  0.500000  0.142857    0.00396825  16 t-inv F
 -0.333333 -0.333333  0.142857    0.00396825  17 t-inv F
  0.000000  0.000000  0.285714    0.00396825  18 t-inv F
  0.166667  0.000000  0.285714    0.00396825  19 t-inv F
  0.333333 -0.000000  0.285714    0.00396825  20 t-inv F
  0.500000 -0.000000  0.285714    0.00396825  21 t-inv F
  0.166667  0.166667  0.285714    0.00396825  22 t-inv F
  0.333333  0.166667  0.285714    0.00396825  23 t-inv F
  0.333333  0.333333  0.285714    0.00396825  24 t-inv F
 -0.166667  0.333333  0.285714    0.00396825  25 t-inv F
 -0.333333  0.500000  0.285714    0.00396825  26 t-inv F
 -0.333333 -0.333333  0.285714    0.00396825  27 t-inv F
  0.000000  0.000000  0.428571    0.00396825  28 t-inv F
  0.166667  0.000000  0.428571    0.00396825  29 t-inv F
  0.333333 -0.000000  0.428571    0.00396825  30 t-inv F
  0.500000 -0.000000  0.428571    0.00396825  31 t-inv F
  0.166667  0.166667  0.428571    0.00396825  32 t-inv F
  0.333333  0.166667  0.428571    0.00396825  33 t-inv F
  0.333333  0.333333  0.428571    0.00396825  34 t-inv F
 -0.166667  0.333333  0.428571    0.00396825  35 t-inv F
 -0.333333  0.500000  0.428571    0.00396825  36 t-inv F
 -0.333333 -0.333333  0.428571    0.00396825  37 t-inv F
 -0.166667 -0.000000  0.000000    0.00396825   2 t-inv F
 -0.166667  0.166667  0.000000    0.00396825   2 t-inv F
  0.166667 -0.166667  0.000000    0.00396825   2 t-inv F
  0.000000 -0.166667  0.000000    0.00396825   2 t-inv F
 -0.000000  0.166667  0.000000    0.00396825   2 t-inv F
 -0.333333  0.000000  0.000000    0.00396825   3 t-inv F
 -0.333333  0.333333  0.000000    0.00396825   3 t-inv F
  0.333333 -0.333333  0.000000    0.00396825   3 t-inv F
 -0.000000 -0.333333  0.000000    0.00396825   3 t-inv F
  0.000000  0.333333  0.000000    0.00396825   3 t-inv F
 -0.500000  0.500000  0.000000    0.00396825   4 t-inv F
 -0.000000 -0.500000  0.000000    0.00396825   4 t-inv F
 -0.166667 -0.166667  0.000000    0.00396825   5 t-inv F
 -0.333333  0.166667  0.000000    0.00396825   5 t-inv F
  0.333333 -0.166667  0.000000    0.00396825   5 t-inv F
  0.166667 -0.333333  0.000000    0.00396825   5 t-inv F
 -0.166667  0.333333  0.000000    0.00396825   5 t-inv F
 -0.333333 -0.166667  0.000000    0.00396825   6 t-inv F
 -0.500000  0.333333  0.000000    0.00396825   6 t-inv F
  0.500000 -0.333333  0.000000    0.00396825   6 t-inv F
  0.166667 -0.500000  0.000000    0.00396825   6 t-inv F
 -0.166667  0.500000  0.000000    0.00396825   6 t-inv F
 -0.166667 -0.333333  0.000000    0.00396825   6 t-inv F
  0.166667  0.333333  0.000000    0.00396825   6 t-inv F
 -0.333333  0.500000  0.000000    0.00396825   6 t-inv F
  0.333333 -0.500000  0.000000    0.00396825   6 t-inv F
  0.500000 -0.166667  0.000000    0.00396825   6 t-inv F
 -0.500000  0.166667  0.000000    0.00396825   6 t-inv F
 -0.333333 -0.333333  0.000000    0.00396825   7 t-inv F
  0.000000  0.000000 -0.142857    0.00396825   8 t-inv F
 -0.166667 -0.000000 -0.142857    0.00396825   9 t-inv F
 -0.166667  0.166667  0.142857    0.00396825   9 t-inv F
  0.166667 -0.166667 -0.142857    0.00396825   9 t-inv F
  0.000000 -0.166667  0.142857    0.00396825   9 t-inv F
 -0.000000  0.166667 -0.142857    0.00396825   9 t-inv F
 -0.000000 -0.166667 -0.142857    0.00396825   9 t-inv F
  0.000000  0.166667  0.142857    0.00396825   9 t-inv F
 -0.166667  0.166667 -0.142857    0.00396825   9 t-inv F
  0.166667 -0.166667  0.142857    0.00396825   9 t-inv F
  0.166667 -0.000000 -0.142857    0.00396825   9 t-inv F
 -0.166667  0.000000  0.142857    0.00396825   9 t-inv F
 -0.333333  0.000000 -0.142857    0.00396825  10 t-inv F
 -0.333333  0.333333  0.142857    0.00396825  10 t-inv F
  0.333333 -0.333333 -0.142857    0.00396825  10 t-inv F
 -0.000000 -0.333333  0.142857    0.00396825  10 t-inv F
  0.000000  0.333333 -0.142857    0.00396825  10 t-inv F
  0.000000 -0.333333 -0.142857    0.00396825  10 t-inv F
 -0.000000  0.333333  0.142857    0.00396825  10 t-inv F
 -0.333333  0.333333 -0.142857    0.00396825  10 t-inv F
  0.333333 -0.333333  0.142857    0.00396825  10 t-inv F
  0.333333  0.000000 -0.142857    0.00396825  10 t-inv F
 -0.333333 -0.000000  0.142857    0.00396825  10 t-inv F
 -0.500000  0.000000 -0.142857    0.00396825  11 t-inv F
 -0.500000  0.500000  0.142857    0.00396825  11 t-inv F
  0.500000 -0.500000 -0.142857    0.00396825  11 t-inv F
 -0.000000 -0.500000  0.142857    0.00396825  11 t-inv F
  0.000000  0.500000 -0.142857    0.00396825  11 t-inv F
 -0.166667 -0.166667 -0.142857    0.00396825  12 t-inv F
 -0.333333  0.166667  0.142857    0.00396825  12 t-inv F
  0.333333 -0.166667 -0.142857    0.00396825  12 t-inv F
  0.166667 -0.333333  0.142857    0.00396825  12 t-inv F
 -0.166667  0.333333 -0.142857    0.00396825  12 t-inv F
 -0.333333 -0.166667 -0.142857    0.00396825  13 t-inv F
 -0.500000  0.333333  0.142857    0.00396825  13 t-inv F
  0.500000 -0.333333 -0.142857    0.00396825  13 t-inv F
  0.166667 -0.500000  0.142857    0.00396825  13 t-inv F
 -0.166667  0.500000 -0.142857    0.00396825  13 t-inv F
 -0.166667 -0.333333 -0.142857    0.00396825  13 t-inv F
  0.166667  0.333333  0.142857    0.00396825  13 t-inv F
 -0.333333  0.500000 -0.142857    0.00396825  13 t-inv F
  0.333333 -0.500000  0.142857    0.00396825  13 t-inv F
  0.500000 -0.166667 -0.142857    0.00396825  13 t-inv F
 -0.500000  0.166667  0.142857    0.00396825  13 t-inv F
 -0.333333 -0.333333 -0.142857    0.00396825  14 t-inv F
  0.166667 -0.333333 -0.142857    0.00396825  15 t-inv F
 -0.166667 -0.166667  0.142857    0.00396825  15 t-inv F
  0.166667  0.166667 -0.142857    0.00396825  15 t-inv F
  0.333333 -0.166667  0.142857    0.00396825  15 t-inv F
 -0.333333  0.166667 -0.142857    0.00396825  15 t-inv F
  0.333333 -0.500000 -0.142857    0.00396825  16 t-inv F
 -0.166667 -0.333333  0.142857    0.00396825  16 t-inv F
  0.166667  0.333333 -0.142857    0.00396825  16 t-inv F
  0.500000 -0.166667  0.142857    0.00396825  16 t-inv F
 -0.500000  0.166667 -0.142857    0.00396825  16 t-inv F
 -0.500000  0.333333 -0.142857    0.00396825  16 t-inv F
  0.500000 -0.333333  0.142857    0.00396825  16 t-inv F
  0.333333  0.166667 -0.142857    0.00396825  16 t-inv F
 -0.333333 -0.166667  0.142857    0.00396825  16 t-inv F
  0.166667 -0.500000 -0.142857    0.00396825  16 t-inv F
 -0.166667  0.500000  0.142857    0.00396825  16 t-inv F
  0.333333  0.333333 -0.142857    0.00396825  17 t-inv F
  0.000000  0.000000 -0.285714    0.00396825  18 t-inv F
 -0.166667 -0.000000 -0.285714    0.00396825  19 t-inv F
 -0.166667  0.166667  0.285714    0.00396825  19 t-inv F
  0.166667 -0.166667 -0.285714    0.00396825  19 t-inv F
  0.000000 -0.166667  0.285714    0.00396825  19 t-inv F
 -0.000000  0.166667 -0.285714    0.00396825  19 t-inv F
 -0.000000 -0.166667 -0.285714    0.00396825  19 t-inv F
  0.000000  0.166667  0.285714    0.00396825  19 t-inv F
 -0.166667  0.166667 -0.285714    0.00396825  19 t-inv F
  0.166667 -0.166667  0.285714    0.00396825  19 t-inv F
  0.166667 -0.000000 -0.285714    0.00396825  19 t-inv F
 -0.166667  0.000000  0.285714    0.00396825  19 t-inv F
 -0.333333  0.000000 -0.285714    0.00396825  20 t-inv F
 -0.333333  0.333333  0.285714    0.00396825  20 t-inv F
  0.333333 -0.333333 -0.285714    0.00396825  20 t-inv F
 -0.000000 -0.333333  0.285714    0.00396825  20 t-inv F
  0.000000  0.333333 -0.285714    0.00396825  20 t-inv F
  0.000000 -0.333333 -0.285714    0.00396825  20 t-inv F
 -0.000000  0.333333  0.285714    0.00396825  20 t-inv F
 -0.333333  0.333333 -0.285714    0.00396825  20 t-inv F
  0.333333 -0.333333  0.285714    0.00396825  20 t-inv F
  0.333333  0.000000 -0.285714    0.00396825  20 t-inv F
 -0.333333 -0.000000  0.285714    0.00396825  20 t-inv F
 -0.500000  0.000000 -0.285714    0.00396825  21 t-inv F
 -0.500000  0.500000  0.285714    0.00396825  21 t-inv F
  0.500000 -0.500000 -0.285714    0.00396825  21 t-inv F
 -0.000000 -0.500000  0.285714    0.00396825  21 t-inv F
  0.000000  0.500000 -0.285714    0.00396825  21 t-inv F
 -0.166667 -0.166667 -0.285714    0.00396825  22 t-inv F
 -0.333333  0.166667  0.285714    0.00396825  22 t-inv F
  0.333333 -0.166667 -0.285714    0.00396825  22 t-inv F
  0.166667 -0.333333  0.285714    0.00396825  22 t-inv F
 -0.166667  0.333333 -0.285714    0.00396825  22 t-inv F
 -0.333333 -0.166667 -0.285714    0.00396825  23 t-inv F
 -0.500000  0.333333  0.285714    0.00396825  23 t-inv F
  0.500000 -0.333333 -0.285714    0.00396825  23 t-inv F
  0.166667 -0.500000  0.285714    0.00396825  23 t-inv F
 -0.166667  0.500000 -0.285714    0.00396825  23 t-inv F
 -0.166667 -0.333333 -0.285714    0.00396825  23 t-inv F
  0.166667  0.333333  0.285714    0.00396825  23 t-inv F
 -0.333333  0.500000 -0.285714    0.00396825  23 t-inv F
  0.333333 -0.500000  0.285714    0.00396825  23 t-inv F
  0.500000 -0.166667 -0.285714    0.00396825  23 t-inv F
 -0.500000  0.166667  0.285714    0.00396825  23 t-inv F
 -0.333333 -0.333333 -0.285714    0.00396825  24 t-inv F
  0.166667 -0.333333 -0.285714    0.00396825  25 t-inv F
 -0.166667 -0.166667  0.285714    0.00396825  25 t-inv F
  0.166667  0.166667 -0.285714    0.00396825  25 t-inv F
  0.333333 -0.166667  0.285714    0.00396825  25 t-inv F
 -0.333333  0.166667 -0.285714    0.00396825  25 t-inv F
  0.333333 -0.500000 -0.285714    0.00396825  26 t-inv F
 -0.166667 -0.333333  0.285714    0.00396825  26 t-inv F
  0.166667  0.333333 -0.285714    0.00396825  26 t-inv F
  0.500000 -0.166667  0.285714    0.00396825  26 t-inv F
 -0.500000  0.166667 -0.285714    0.00396825  26 t-inv F
 -0.500000  0.333333 -0.285714    0.00396825  26 t-inv F
  0.500000 -0.333333  0.285714    0.00396825  26 t-inv F
  0.333333  0.166667 -0.285714    0.00396825  26 t-inv F
 -0.333333 -0.166667  0.285714    0.00396825  26 t-inv F
  0.166667 -0.500000 -0.285714    0.00396825  26 t-inv F
 -0.166667  0.500000  0.285714    0.00396825  26 t-inv F
  0.333333  0.333333 -0.285714    0.00396825  27 t-inv F
  0.000000  0.000000 -0.428571    0.00396825  28 t-inv F
 -0.166667 -0.000000 -0.428571    0.00396825  29 t-inv F
 -0.166667  0.166667  0.428571    0.00396825  29 t-inv F
  0.166667 -0.166667 -0.428571    0.00396825  29 t-inv F
  0.000000 -0.166667  0.428571    0.00396825  29 t-inv F
 -0.000000  0.166667 -0.428571    0.00396825  29 t-inv F
 -0.000000 -0.166667 -0.428571    0.00396825  29 t-inv F
  0.000000  0.166667  0.428571    0.00396825  29 t-inv F
 -0.166667  0.166667 -0.428571    0.00396825  29 t-inv F
  0.166667 -0.166667  0.428571    0.00396825  29 t-inv F
  0.166667 -0.000000 -0.428571    0.00396825  29 t-inv F
 -0.166667  0.000000  0.428571    0.00396825  29 t-inv F
 -0.333333  0.000000 -0.428571    0.00396825  30 t-inv F
 -0.333333  0.333333  0.428571    0.00396825  30 t-inv F
  0.333333 -0.333333 -0.428571    0.00396825  30 t-inv F
 -0.000000 -0.333333  0.428571    0.00396825  30 t-inv F
  0.000000  0.333333 -0.428571    0.00396825  30 t-inv F
  0.000000 -0.333333 -0.428571    0.00396825  30 t-inv F
 -0.000000  0.333333  0.428571    0.00396825  30 t-inv F
 -0.333333  0.333333 -0.428571    0.00396825  30 t-inv F
  0.333333 -0.333333  0.428571    0.00396825  30 t-inv F
  0.333333  0.000000 -0.428571    0.00396825  30 t-inv F
 -0.333333 -0.000000  0.428571    0.00396825  30 t-inv F
 -0.500000  0.000000 -0.428571    0.00396825  31 t-inv F
 -0.500000  0.500000  0.428571    0.00396825  31 t-inv F
  0.500000 -0.500000 -0.428571    0.00396825  31 t-inv F
 -0.000000 -0.500000  0.428571    0.00396825  31 t-inv F
  0.000000  0.500000 -0.428571    0.00396825  31 t-inv F
 -0.166667 -0.166667 -0.428571    0.00396825  32 t-inv F
 -0.333333  0.166667  0.428571    0.00396825  32 t-inv F
  0.333333 -0.166667 -0.428571    0.00396825  32 t-inv F
  0.166667 -0.333333  0.428571    0.00396825  32 t-inv F
 -0.166667  0.333333 -0.428571    0.00396825  32 t-inv F
 -0.333333 -0.166667 -0.428571    0.00396825  33 t-inv F
 -0.500000  0.333333  0.428571    0.00396825  33 t-inv F
  0.500000 -0.333333 -0.428571    0.00396825  33 t-inv F
  0.166667 -0.500000  0.428571    0.00396825  33 t-inv F
 -0.166667  0.500000 -0.428571    0.00396825  33 t-inv F
 -0.166667 -0.333333 -0.428571    0.00396825  33 t-inv F
  0.166667  0.333333  0.428571    0.00396825  33 t-inv F
 -0.333333  0.500000 -0.428571    0.00396825  33 t-inv F
  0.333333 -0.500000  0.428571    0.00396825  33 t-inv F
  0.500000 -0.166667 -0.428571    0.00396825  33 t-inv F
 -0.500000  0.166667  0.428571    0.00396825  33 t-inv F
 -0.333333 -0.333333 -0.428571    0.00396825  34 t-inv F
  0.166667 -0.333333 -0.428571    0.00396825  35 t-inv F
 -0.166667 -0.166667  0.428571    0.00396825  35 t-inv F
  0.166667  0.166667 -0.428571    0.00396825  35 t-inv F
  0.333333 -0.166667  0.428571    0.00396825  35 t-inv F
 -0.333333  0.166667 -0.428571    0.00396825  35 t-inv F
  0.333333 -0.500000 -0.428571    0.00396825  36 t-inv F
 -0.166667 -0.333333  0.428571    0.00396825  36 t-inv F
  0.166667  0.333333 -0.428571    0.00396825  36 t-inv F
  0.500000 -0.166667  0.428571    0.00396825  36 t-inv F
 -0.500000  0.166667 -0.428571    0.00396825  36 t-inv F
 -0.500000  0.333333 -0.428571    0.00396825  36 t-inv F
  0.500000 -0.333333  0.428571    0.00396825  36 t-inv F
  0.333333  0.166667 -0.428571    0.00396825  36 t-inv F
 -0.333333 -0.166667  0.428571    0.00396825  36 t-inv F
  0.166667 -0.500000 -0.428571    0.00396825  36 t-inv F
 -0.166667  0.500000  0.428571    0.00396825  36 t-inv F
  0.333333  0.333333 -0.428571    0.00396825  37 t-inv F


--------------------------------------------------------------------------------------------------------




 Dimension of arrays:
   k-points           NKPTS =     37   k-points in BZ     NKDIM =    252   number of bands    NBANDS=     42
   number of dos      NEDOS =    301   number of ions     NIONS =      9
   non local maximal  LDIM  =      6   non local SUM 2l+1 LMDIM =     18
   total plane-waves  NPLWV =  18816
   max r-space proj   IRMAX =   2748   max aug-charges    IRDMAX=  13500
   dimension x,y,z NGX =    28 NGY =   28 NGZ =   24
   dimension x,y,z NGXF=    56 NGYF=   56 NGZF=   48
   support grid    NGXF=    56 NGYF=   56 NGZF=   48
   ions per type =               1   2   6
   NGX,Y,Z   is equivalent  to a cutoff of   9.02,  9.02,  8.99 a.u.
   NGXF,Y,Z  is equivalent  to a cutoff of  18.05, 18.05, 17.98 a.u.

 SYSTEM =  unknown system                          
 POSCAR =  Li1 Ir2 O6                              

 Startparameter for this run:
   NWRITE =      2    write-flag & timer
   PREC   = normal    normal or accurate (medium, high low for compatibility)
   ISTART =      0    job   : 0-new  1-cont  2-samecut
   ICHARG =      2    charge: 1-file 2-atom 10-const
   ISPIN  =      2    spin polarized calculation?
   LNONCOLLINEAR =      F non collinear calculations
   LSORBIT =      F    spin-orbit coupling
   INIWAV =      1    electr: 0-lowe 1-rand  2-diag
   LASPH  =      T    aspherical Exc in radial PAW
   METAGGA=      F    non-selfconsistent MetaGGA calc.

 Electronic Relaxation 1
   ENCUT  =  500.0 eV  36.75 Ry    6.06 a.u.   9.40  9.40  8.09*2*pi/ulx,y,z
   ENINI  =  500.0     initial cutoff
   ENAUG  =  628.9 eV  augmentation charge cutoff
   NELM   =    100;   NELMIN=  5; NELMDL=  0     # of ELM steps 
   EDIFF  = 0.1E-05   stopping-criterion for ELM
   LREAL  =      T    real-space projection
   NLSPLINE    = F    spline interpolate recip. space projectors
   LCOMPAT=      F    compatible to vasp.4.4
   GGA_COMPAT  = T    GGA compatible to vasp.4.4-vasp.4.6
   LMAXPAW     = -100 max onsite density
   LMAXMIX     =    2 max onsite mixed and CHGCAR
   VOSKOWN=      0    Vosko Wilk Nusair interpolation
   ROPT   =   -0.00050  -0.00050  -0.00050
 Ionic relaxation
   EDIFFG = 0.1E-02   stopping-criterion for IOM
   NSW    =    300    number of steps for IOM
   NBLOCK =      1;   KBLOCK =    300    inner block; outer block 
   IBRION =      2    ionic relax: 0-MD 1-quasi-New 2-CG
   NFREE  =      1    steps in history (QN), initial steepest desc. (CG)
   ISIF   =      3    stress and relaxation
   IWAVPR =     11    prediction:  0-non 1-charg 2-wave 3-comb
   ISYM   =      3    0-nonsym 1-usesym 2-fastsym
   LCORR  =      T    Harris-Foulkes like correction to forces

   POTIM  = 0.5000    time-step for ionic-motion
   TEIN   =    0.0    initial temperature
   TEBEG  =    0.0;   TEEND  =   0.0 temperature during run
   SMASS  =  -3.00    Nose mass-parameter (am)
   estimated Nose-frequenzy (Omega)   =  0.10E-29 period in steps =****** mass=  -0.608E-27a.u.
   SCALEE = 1.0000    scale energy and forces
   NPACO  =    256;   APACO  = 16.0  distance and # of slots for P.C.
   PSTRESS=    0.0 pullay stress

  Mass of Ions in am
   POMASS =   7.01192.22 16.00
  Ionic Valenz
   ZVAL   =   3.00  9.00  6.00
  Atomic Wigner-Seitz radii
   RWIGS  =  -1.00 -1.00 -1.00
  virtual crystal weights 
   VCA    =   1.00  1.00  1.00
   NELECT =      57.0000    total number of electrons
   NUPDOWN=      -1.0000    fix difference up-down

 DOS related values:
   EMIN   =  10.00;   EMAX   =-10.00  energy-range for DOS
   EFERMI =   0.00
   ISMEAR =     0;   SIGMA  =   0.05  broadening in eV -4-tet -1-fermi 0-gaus

 Electronic relaxation 2 (details)
   IALGO  =     58    algorithm
   LDIAG  =      T    sub-space diagonalisation (order eigenvalues)
   LSUBROT=      F    optimize rotation matrix (better conditioning)
   TURBO    =      0    0=normal 1=particle mesh
   IRESTART =      0    0=no restart 2=restart with 2 vectors
   NREBOOT  =      0    no. of reboots
   NMIN     =      0    reboot dimension
   EREF     =   0.00    reference energy to select bands
   IMIX   =      4    mixing-type and parameters
     AMIX     =   0.40;   BMIX     =  1.00
     AMIX_MAG =   1.60;   BMIX_MAG =  1.00
     AMIN     =   0.10
     WC   =   100.;   INIMIX=   1;  MIXPRE=   1;  MAXMIX= -45

 Intra band minimization:
   WEIMIN = 0.0010     energy-eigenvalue tresh-hold
   EBREAK =  0.60E-08  absolut break condition
   DEPER  =   0.30     relativ break condition  

   TIME   =   0.40     timestep for ELM

  volume/ion in A,a.u.               =      11.37        76.70
  Fermi-wavevector in a.u.,A,eV,Ry     =   1.347168  2.545779 24.692701  1.814862
  Thomas-Fermi vector in A             =   2.474941
 
 Write flags
   LWAVE        =      F    write WAVECAR
   LDOWNSAMPLE  =      F    k-point downsampling of WAVECAR
   LCHARG       =      F    write CHGCAR
   LVTOT        =      F    write LOCPOT, total local potential
   LVHAR        =      F    write LOCPOT, Hartree potential only
   LELF         =      F    write electronic localiz. function (ELF)
   LORBIT       =     11    0 simple, 1 ext, 2 COOP (PROOUT), +10 PAW based schemes


 Dipole corrections
   LMONO  =      F    monopole corrections only (constant potential shift)
   LDIPOL =      F    correct potential (dipole corrections)
   IDIPOL =      0    1-x, 2-y, 3-z, 4-all directions 
   EPSILON=  1.0000000 bulk dielectric constant

 Exchange correlation treatment:
   GGA     =    --    GGA type
   LEXCH   =     8    internal setting for exchange type
   VOSKOWN=      0    Vosko Wilk Nusair interpolation
   EXXOEP  =     0    0=HF, 1=EXX-LHF (local Hartree Fock) 2=EXX OEP
   LHFCALC =     T    Hartree Fock is set to
   LSYMGRAD=     F    symmetrize gradient (conserves proper symmetry)
   PRECFOCK=fast      Normal, Fast or Accurate (Low or Medium for compatibility)
   LRHFCALC=     F    long range Hartree Fock
   LRSCOR  =     F    long range correlation only (use DFT for short range part)
   LTHOMAS =     F    Thomas Fermi screening in HF
   LMODELHF=     F    short range full HF, long range fraction AEXX
   ENCUT4O =  -1.0   cutoff for four orbital integrals eV
   LMAXFOCK=     4    L truncation for augmentation on plane wave grid
   LMAXFOCKAE=  -1    L truncation for all-electron charge restoration on plane wave grid
   NMAXFOCKAE=   1    number of basis functions for all-electron charge restoration
   LFOCKAEDFT=     F  apply the AE augmentation even for DFT
   NKREDX  =     1    reduce k-point grid by
   NKREDY  =     1    reduce k-point grid by
   NKREDZ  =     1    reduce k-point grid by
   SHIFTRED=     F    shift reduced grid of Gamma
   HFKIDENT=     F    idential grid for each k-point
   ODDONLY =     F    use only odd q-grid points
   EVENONLY=     F    use only even q-grid points
   HFALPHA =   -1.0000 decay constant for conv. correction
   MCALPHA =    0.0000 extent of test-charge in conv. correction in multipole expansion
   AEXX    =    0.2500 exact exchange contribution
   HFSCREEN=    0.2000 screening length (either q_TF or 0.3 A-1)
   HFSCREENC=   0.2000 screening length for correlation (either q_TF or 0.3 A-1)
   HFRCUT  =    0.0000 spherical cutoff for potential kernel
   ALDAX   =    0.7500 LDA exchange part
   AGGAX   =    0.7500 GGA exchange part
   ALDAC   =    1.0000 LDA correlation
   AGGAC   =    1.0000 GGA correlation
   ENCUTFOCK=  -1.0 apply spherical cutoff to Coloumb kernel
   NBANDSGWLOW=     1    first orbital included in HF term
   NBLOCK_FOCK=    64    blocking factor in FOCK_ACC
 Linear response parameters
   LEPSILON=     F    determine dielectric tensor
   LRPA    =     F    only Hartree local field effects (RPA)
   LNABLA  =     F    use nabla operator in PAW spheres
   LVEL    =     F    velocity operator in full k-point grid
   LINTERFAST=   F  fast interpolation
   KINTER  =     0    interpolate to denser k-point grid
   CSHIFT  =0.1000    complex shift for real part using Kramers Kronig
   OMEGAMAX=  -1.0    maximum frequency
   DEG_THRESHOLD= 0.2000000E-02 threshold for treating states as degnerate
   RTIME   =   -0.100 relaxation time in fs
  (WPLASMAI=    0.000 imaginary part of plasma frequency in eV, 0.658/RTIME)
   DFIELD  = 0.0000000 0.0000000 0.0000000 field for delta impulse in time
 
 Orbital magnetization related:
   ORBITALMAG=     F  switch on orbital magnetization
   LCHIMAG   =     F  perturbation theory with respect to B field
   DQ        =  0.001000  dq finite difference perturbation B field
   LLRAUG    =     F  two centre corrections for induced B field



--------------------------------------------------------------------------------------------------------


 conjugate gradient relaxation of ions
 charge density and potential will be updated during run
 spin polarized calculation
 Conjugate gradient for all bands (Freysoldt, et al. PRB 79, 241103 (2009))
 preconditioned conjugated gradient                                        
 perform sub-space diagonalisation
    before iterative eigenvector-optimisation
 modified Broyden-mixing scheme, WC =      100.0
 initial mixing is a Kerker type mixing with AMIX =  0.4000 and BMIX =      1.0000
 Hartree-type preconditioning will be used
 using additional bands           13
 real space projection scheme for non local part
 use partial core corrections
 no Harris-corrections to forces 
 use gradient corrections 
 use of overlap-Matrix (Vanderbilt PP)
 Gauss-broadening in eV      SIGMA  =   0.05


--------------------------------------------------------------------------------------------------------


  energy-cutoff  :      500.00
  volume of cell :      102.29
      direct lattice vectors                 reciprocal lattice vectors
     2.579174947 -4.467261427  0.000000000     0.193860444 -0.111925395  0.000000000
     2.579174947  4.467261427  0.000000000     0.193860444  0.111925395  0.000000000
     0.000000000  0.000000000  4.438964233     0.000000000  0.000000000  0.225277778

  length of vectors
     5.158349354  5.158349354  4.438964233     0.223850767  0.223850767  0.225277778


 
 k-points in units of 2pi/SCALE and weight: pymatgen 4.7.6+ generated KPOINTS with g
   0.00000000  0.00000000  0.00000000       0.004
   0.03231007 -0.01865423  0.00000000       0.024
   0.06462015 -0.03730847  0.00000000       0.024
   0.09693022 -0.05596270  0.00000000       0.012
   0.06462015  0.00000000  0.00000000       0.024
   0.09693022 -0.01865423  0.00000000       0.048
   0.12924030  0.00000000  0.00000000       0.008
   0.00000000  0.00000000  0.03218254       0.008
   0.03231007 -0.01865423  0.03218254       0.048
   0.06462015 -0.03730847  0.03218254       0.048
   0.09693022 -0.05596270  0.03218254       0.024
   0.06462015  0.00000000  0.03218254       0.024
   0.09693022 -0.01865423  0.03218254       0.048
   0.12924030  0.00000000  0.03218254       0.008
   0.03231007  0.05596270  0.03218254       0.024
   0.03231007  0.09327116  0.03218254       0.048
  -0.12924030 -0.00000000  0.03218254       0.008
   0.00000000  0.00000000  0.06436508       0.008
   0.03231007 -0.01865423  0.06436508       0.048
   0.06462015 -0.03730847  0.06436508       0.048
   0.09693022 -0.05596270  0.06436508       0.024
   0.06462015  0.00000000  0.06436508       0.024
   0.09693022 -0.01865423  0.06436508       0.048
   0.12924030  0.00000000  0.06436508       0.008
   0.03231007  0.05596270  0.06436508       0.024
   0.03231007  0.09327116  0.06436508       0.048
  -0.12924030 -0.00000000  0.06436508       0.008
   0.00000000  0.00000000  0.09654762       0.008
   0.03231007 -0.01865423  0.09654762       0.048
   0.06462015 -0.03730847  0.09654762       0.048
   0.09693022 -0.05596270  0.09654762       0.024
   0.06462015  0.00000000  0.09654762       0.024
   0.09693022 -0.01865423  0.09654762       0.048
   0.12924030  0.00000000  0.09654762       0.008
   0.03231007  0.05596270  0.09654762       0.024
   0.03231007  0.09327116  0.09654762       0.048
  -0.12924030 -0.00000000  0.09654762       0.008
 
 k-points in reciprocal lattice and weights: pymatgen 4.7.6+ generated KPOINTS with g
   0.00000000  0.00000000  0.00000000       0.004
   0.16666667  0.00000000  0.00000000       0.024
   0.33333333 -0.00000000  0.00000000       0.024
   0.50000000 -0.00000000  0.00000000       0.012
   0.16666667  0.16666667  0.00000000       0.024
   0.33333333  0.16666667  0.00000000       0.048
   0.33333333  0.33333333  0.00000000       0.008
   0.00000000  0.00000000  0.14285714       0.008
   0.16666667  0.00000000  0.14285714       0.048
   0.33333333 -0.00000000  0.14285714       0.048
   0.50000000 -0.00000000  0.14285714       0.024
   0.16666667  0.16666667  0.14285714       0.024
   0.33333333  0.16666667  0.14285714       0.048
   0.33333333  0.33333333  0.14285714       0.008
  -0.16666667  0.33333333  0.14285714       0.024
  -0.33333333  0.50000000  0.14285714       0.048
  -0.33333333 -0.33333333  0.14285714       0.008
   0.00000000  0.00000000  0.28571429       0.008
   0.16666667  0.00000000  0.28571429       0.048
   0.33333333 -0.00000000  0.28571429       0.048
   0.50000000 -0.00000000  0.28571429       0.024
   0.16666667  0.16666667  0.28571429       0.024
   0.33333333  0.16666667  0.28571429       0.048
   0.33333333  0.33333333  0.28571429       0.008
  -0.16666667  0.33333333  0.28571429       0.024
  -0.33333333  0.50000000  0.28571429       0.048
  -0.33333333 -0.33333333  0.28571429       0.008
   0.00000000  0.00000000  0.42857143       0.008
   0.16666667  0.00000000  0.42857143       0.048
   0.33333333 -0.00000000  0.42857143       0.048
   0.50000000 -0.00000000  0.42857143       0.024
   0.16666667  0.16666667  0.42857143       0.024
   0.33333333  0.16666667  0.42857143       0.048
   0.33333333  0.33333333  0.42857143       0.008
  -0.16666667  0.33333333  0.42857143       0.024
  -0.33333333  0.50000000  0.42857143       0.048
  -0.33333333 -0.33333333  0.42857143       0.008
 
 position of ions in fractional coordinates (direct lattice) 
   0.00000000  0.00000000  0.00000000
   0.33333300  0.66666700  0.50000000
   0.66666700  0.33333300  0.50000000
   0.35607515  0.35607515  0.72843748
   0.00000000  0.64392485  0.72843748
   0.64392485  0.00000000  0.72843748
   1.00000000  0.35607515  0.27156252
   0.64392485  0.64392485  0.27156252
   0.35607515  1.00000000  0.27156252
 
 position of ions in cartesian coordinates  (Angst):
   0.00000000  0.00000000  0.00000000
   2.57917495  1.48909012  2.21948212
   2.57917495 -1.48909012  2.21948212
   1.83676022  0.00000000  3.23350791
   1.66079484  2.87658063  3.23350791
   1.66079484 -2.87658063  3.23350791
   3.49755506 -2.87658063  1.20545633
   3.32158967 -0.00000000  1.20545633
   3.49755506  2.87658063  1.20545633
 


--------------------------------------------------------------------------------------------------------


 k-point  1 :   0.0000 0.0000 0.0000  plane waves:    2621
 k-point  2 :   0.1667 0.0000 0.0000  plane waves:    2610
 k-point  3 :   0.3333-0.0000 0.0000  plane waves:    2602
 k-point  4 :   0.5000-0.0000 0.0000  plane waves:    2594
 k-point  5 :   0.1667 0.1667 0.0000  plane waves:    2595
 k-point  6 :   0.3333 0.1667 0.0000  plane waves:    2570
 k-point  7 :   0.3333 0.3333 0.0000  plane waves:    2562
 k-point  8 :   0.0000 0.0000 0.1429  plane waves:    2596
 k-point  9 :   0.1667 0.0000 0.1429  plane waves:    2612
 k-point 10 :   0.3333-0.0000 0.1429  plane waves:    2588
 k-point 11 :   0.5000-0.0000 0.1429  plane waves:    2596
 k-point 12 :   0.1667 0.1667 0.1429  plane waves:    2598
 k-point 13 :   0.3333 0.1667 0.1429  plane waves:    2583
 k-point 14 :   0.3333 0.3333 0.1429  plane waves:    2589
 k-point 15 :  -0.1667 0.3333 0.1429  plane waves:    2598
 k-point 16 :  -0.3333 0.5000 0.1429  plane waves:    2583
 k-point 17 :  -0.3333-0.3333 0.1429  plane waves:    2589
 k-point 18 :   0.0000 0.0000 0.2857  plane waves:    2602
 k-point 19 :   0.1667 0.0000 0.2857  plane waves:    2608
 k-point 20 :   0.3333-0.0000 0.2857  plane waves:    2591
 k-point 21 :   0.5000-0.0000 0.2857  plane waves:    2602
 k-point 22 :   0.1667 0.1667 0.2857  plane waves:    2597
 k-point 23 :   0.3333 0.1667 0.2857  plane waves:    2599
 k-point 24 :   0.3333 0.3333 0.2857  plane waves:    2601
 k-point 25 :  -0.1667 0.3333 0.2857  plane waves:    2597
 k-point 26 :  -0.3333 0.5000 0.2857  plane waves:    2599
 k-point 27 :  -0.3333-0.3333 0.2857  plane waves:    2601
 k-point 28 :   0.0000 0.0000 0.4286  plane waves:    2590
 k-point 29 :   0.1667 0.0000 0.4286  plane waves:    2598
 k-point 30 :   0.3333-0.0000 0.4286  plane waves:    2603
 k-point 31 :   0.5000-0.0000 0.4286  plane waves:    2588
 k-point 32 :   0.1667 0.1667 0.4286  plane waves:    2606
 k-point 33 :   0.3333 0.1667 0.4286  plane waves:    2599
 k-point 34 :   0.3333 0.3333 0.4286  plane waves:    2613
 k-point 35 :  -0.1667 0.3333 0.4286  plane waves:    2606
 k-point 36 :  -0.3333 0.5000 0.4286  plane waves:    2599
 k-point 37 :  -0.3333-0.3333 0.4286  plane waves:    2613

 maximum and minimum number of plane-waves per node :      2621     2562

 maximum number of plane-waves:      2621
 maximum index in each direction: 
   IXMAX=    9   IYMAX=    9   IZMAX=    8
   IXMIN=   -9   IYMIN=   -9   IZMIN=   -8


 serial   3D FFT for wavefunctions
 parallel 3D FFT for charge:
    minimum data exchange during FFTs selected (reduces bandwidth)


 FFT grid for exact exchange (Hartree Fock) 
  NGX = 20; NGY = 20; NGZ = 18

 
 Radii for the augmentation spheres in the non-local exchange
 for species   1 augmentation radius   0.956 (default was   0.708)
       energy cutoff for augmentation   2000.0
 for species   2 augmentation radius   1.727 (default was   1.279)
       energy cutoff for augmentation   2000.0
 for species   3 augmentation radius   0.974 (default was   0.722)
       energy cutoff for augmentation   2000.0
 Maximum index for augmentation-charges in exchange         1482
  SETUP_FOCK is finished

 total amount of memory used by VASP MPI-rank0    65167. kBytes
=======================================================================

   base      :      30000. kBytes
   nonlr-proj:       2639. kBytes
   fftplans  :        459. kBytes
   grid      :       2508. kBytes
   one-center:        279. kBytes
   HF        :        194. kBytes
   wavefun   :      29088. kBytes
 
     INWAV:  cpu time    0.0000: real time    0.0001
 Broyden mixing: mesh for mixing (old mesh)
   NGX = 19   NGY = 19   NGZ = 17
  (NGX  = 56   NGY  = 56   NGZ  = 48)
  gives a total of   6137 points

 initial charge density was supplied:
 charge density of overlapping atoms calculated
 number of electron      57.0000000 magnetization       6.4000000
 charge density for first step will be calculated from the start-wavefunctions


--------------------------------------------------------------------------------------------------------


 Maximum index for non-local projection operator         2616
 Maximum index for augmentation-charges          954 (set IRDMAX)


--------------------------------------------------------------------------------------------------------


 First call to EWALD:  gamma=   0.379
 Maximum number of real-space cells 3x 3x 3
 Maximum number of reciprocal cells 3x 3x 3

    FEWALD:  cpu time    0.0039: real time    0.0039


--------------------------------------- Iteration      1(   1)  ---------------------------------------


    POTLOK:  cpu time    0.0489: real time    0.0490
    SETDIJ:  cpu time    1.5584: real time    1.5593
    TRIAL :  cpu time    0.2683: real time    0.3122
    CORREC:  cpu time    0.0006: real time    0.0006
    --------------------------------------------
      LOOP:  cpu time    1.8804: real time    1.9577

 eigenvalue-minimisations  :  6216
 total energy-change (2. order) : 0.5803949E+03  (-0.3075743E+04)
 number of electron      57.0000000 magnetization       6.4000000
 augmentation part       57.0000000 magnetization       6.4000000

 Free energy of the ion-electron system (eV)
  ---------------------------------------------------
  alpha Z        PSCENC =       222.90208830
  Ewald energy   TEWEN  =     -3067.30795885
  -Hartree energ DENC   =     -1004.17423623
  -exchange      EXHF   =         0.00000000
  -V(xc)+E(xc)   XCENC  =       109.14601641
  PAW double counting   =      3293.28034739    -3244.22885994
  entropy T*S    EENTRO =        -0.00244127
  eigenvalues    EBANDS =       375.83439157
  atomic energy  EATOM  =      3894.94555507
  ---------------------------------------------------
  free energy    TOTEN  =       580.39490244 eV

  energy without entropy =      580.39734370  energy(sigma->0) =      580.39612307
  exchange ACFDT corr.  =         0.00000000  see jH, gK, PRB 81, 115126


--------------------------------------------------------------------------------------------------------




--------------------------------------- Iteration      1(   2)  ---------------------------------------


    TRIAL :  cpu time    0.2401: real time    0.2409
    CORREC:  cpu time    0.0006: real time    0.0006
    --------------------------------------------
      LOOP:  cpu time    0.2438: real time    0.2446

 eigenvalue-minimisations  :  6524
 total energy-change (2. order) :-0.4747236E+03  (-0.4371853E+03)
 number of electron      57.0000000 magnetization       6.4000000
 augmentation part       57.0000000 magnetization       6.4000000

 Free energy of the ion-electron system (eV)
  ---------------------------------------------------
  alpha Z        PSCENC =       222.90208830
  Ewald energy   TEWEN  =     -3067.30795885
  -Hartree energ DENC   =     -1004.17423623
  -exchange      EXHF   =         0.00000000
  -V(xc)+E(xc)   XCENC  =       109.14601641
  PAW double counting   =      3293.28034739    -3244.22885994
  entropy T*S    EENTRO =        -0.00710910
  eigenvalues    EBANDS =       -98.88455928
  atomic energy  EATOM  =      3894.94555507
  ---------------------------------------------------
  free energy    TOTEN  =       105.67128376 eV

  energy without entropy =      105.67839285  energy(sigma->0) =      105.67483831
  exchange ACFDT corr.  =         0.00000000  see jH, gK, PRB 81, 115126


--------------------------------------------------------------------------------------------------------




--------------------------------------- Iteration      1(   3)  ---------------------------------------


    TRIAL :  cpu time    0.2970: real time    0.2973
    CORREC:  cpu time    0.0006: real time    0.0006
    --------------------------------------------
      LOOP:  cpu time    0.2979: real time    0.2983

 eigenvalue-minimisations  :  8260
 total energy-change (2. order) :-0.3752345E+02  (-0.3629243E+02)
 number of electron      57.0000000 magnetization       6.4000000
 augmentation part       57.0000000 magnetization       6.4000000

 Free energy of the ion-electron system (eV)
  ---------------------------------------------------
  alpha Z        PSCENC =       222.90208830
  Ewald energy   TEWEN  =     -3067.30795885
  -Hartree energ DENC   =     -1004.17423623
  -exchange      EXHF   =         0.00000000
  -V(xc)+E(xc)   XCENC  =       109.14601641
  PAW double counting   =      3293.28034739    -3244.22885994
  entropy T*S    EENTRO =        -0.01093737
  eigenvalues    EBANDS =      -136.40418434
  atomic energy  EATOM  =      3894.94555507
  ---------------------------------------------------
  free energy    TOTEN  =        68.14783043 eV

  energy without entropy =       68.15876780  energy(sigma->0) =       68.15329912
  exchange ACFDT corr.  =         0.00000000  see jH, gK, PRB 81, 115126


--------------------------------------------------------------------------------------------------------




--------------------------------------- Iteration      1(   4)  ---------------------------------------


    TRIAL :  cpu time    0.3417: real time    0.3420
    CORREC:  cpu time    0.0006: real time    0.0006
    --------------------------------------------
      LOOP:  cpu time    0.3427: real time    0.3429

 eigenvalue-minimisations  :  9646
 total energy-change (2. order) :-0.1174820E+01  (-0.1170998E+01)
 number of electron      57.0000000 magnetization       6.4000000
 augmentation part       57.0000000 magnetization       6.4000000

 Free energy of the ion-electron system (eV)
  ---------------------------------------------------
  alpha Z        PSCENC =       222.90208830
  Ewald energy   TEWEN  =     -3067.30795885
  -Hartree energ DENC   =     -1004.17423623
  -exchange      EXHF   =         0.00000000
  -V(xc)+E(xc)   XCENC  =       109.14601641
  PAW double counting   =      3293.28034739    -3244.22885994
  entropy T*S    EENTRO =        -0.01117373
  eigenvalues    EBANDS =      -137.57876796
  atomic energy  EATOM  =      3894.94555507
  ---------------------------------------------------
  free energy    TOTEN  =        66.97301044 eV

  energy without entropy =       66.98418418  energy(sigma->0) =       66.97859731
  exchange ACFDT corr.  =         0.00000000  see jH, gK, PRB 81, 115126


--------------------------------------------------------------------------------------------------------




--------------------------------------- Iteration      1(   5)  ---------------------------------------


    TRIAL :  cpu time    0.2931: real time    0.2933
    CORREC:  cpu time    0.0006: real time    0.0006
    CHARGE:  cpu time    0.0567: real time    0.0656
    --------------------------------------------
      LOOP:  cpu time    0.3508: real time    0.3599

 eigenvalue-minimisations  :  8302
 total energy-change (2. order) :-0.1584814E-01  (-0.1583505E-01)
 number of electron      56.9999809 magnetization       4.4122500
 augmentation part        8.7041263 magnetization       1.7242874

 Free energy of the ion-electron system (eV)
  ---------------------------------------------------
  alpha Z        PSCENC =       222.90208830
  Ewald energy   TEWEN  =     -3067.30795885
  -Hartree energ DENC   =     -1004.17423623
  -exchange      EXHF   =         0.00000000
  -V(xc)+E(xc)   XCENC  =       109.14601641
  PAW double counting   =      3293.28034739    -3244.22885994
  entropy T*S    EENTRO =        -0.01116497
  eigenvalues    EBANDS =      -137.59462486
  atomic energy  EATOM  =      3894.94555507
  ---------------------------------------------------
  free energy    TOTEN  =        66.95716231 eV

  energy without entropy =       66.96832727  energy(sigma->0) =       66.96274479
  exchange ACFDT corr.  =         0.00000000  see jH, gK, PRB 81, 115126


--------------------------------------------------------------------------------------------------------




--------------------------------------- Iteration      1(   6)  ---------------------------------------


    POTLOK:  cpu time    0.0479: real time    0.0479
    SETDIJ:  cpu time    1.4652: real time    1.4658
    TRIAL :  cpu time  116.7133: real time  116.9890
    CORREC:  cpu time  118.3707: real time  120.0532
    CHARGE:  cpu time    0.0508: real time    0.0509
    --------------------------------------------
      LOOP:  cpu time  236.6484: real time  238.6073

 eigenvalue-minimisations  :     0
 total energy-change (2. order) :-0.1091352E+03  (-0.2403151E+02)
 number of electron      56.9999815 magnetization       4.5735053
 augmentation part        9.5173053 magnetization       2.0356667

 Free energy of the ion-electron system (eV)
  ---------------------------------------------------
  alpha Z        PSCENC =       222.90208830
  Ewald energy   TEWEN  =     -3067.30795885
  -Hartree energ DENC   =      -967.59027648
  -exchange      EXHF   =       152.70734352
  -V(xc)+E(xc)   XCENC  =       114.71054569
  PAW double counting   =      5260.04749984    -5221.83090671
  entropy T*S    EENTRO =        -0.00955062
  eigenvalues    EBANDS =      -430.75077248
  atomic energy  EATOM  =      3894.94555507
  ---------------------------------------------------
  free energy    TOTEN  =       -42.17804707 eV

  energy without entropy =      -42.16849645  energy(sigma->0) =      -42.17327176
  exchange ACFDT corr.  =        -0.01959542  see jH, gK, PRB 81, 115126


--------------------------------------------------------------------------------------------------------




--------------------------------------- Iteration      1(   7)  ---------------------------------------


    POTLOK:  cpu time    0.0485: real time    0.0485
    SETDIJ:  cpu time    1.6932: real time    1.6944
    TRIAL :  cpu time  116.3446: real time  116.7182
    CORREC:  cpu time  118.1409: real time  119.9081
    CHARGE:  cpu time    0.0508: real time    0.0508
    --------------------------------------------
      LOOP:  cpu time  236.2785: real time  238.4206

 eigenvalue-minimisations  :     0
 total energy-change (2. order) :-0.2431203E+02  (-0.3153280E+01)
 number of electron      56.9999816 magnetization       4.9381380
 augmentation part        9.5231335 magnetization       2.0961999

 Free energy of the ion-electron system (eV)
  ---------------------------------------------------
  alpha Z        PSCENC =       222.90208830
  Ewald energy   TEWEN  =     -3067.30795885
  -Hartree energ DENC   =      -978.10684821
  -exchange      EXHF   =       148.33913866
  -V(xc)+E(xc)   XCENC  =       110.60810893
  PAW double counting   =      6138.37744199    -6102.53479930
  entropy T*S    EENTRO =        -0.00189999
  eigenvalues    EBANDS =      -433.70325314
  atomic energy  EATOM  =      3894.94555507
  ---------------------------------------------------
  free energy    TOTEN  =       -66.49007717 eV

  energy without entropy =      -66.48817718  energy(sigma->0) =      -66.48912718
  exchange ACFDT corr.  =        -0.03083887  see jH, gK, PRB 81, 115126


--------------------------------------------------------------------------------------------------------




--------------------------------------- Iteration      1(   8)  ---------------------------------------


    POTLOK:  cpu time    0.0485: real time    0.0486
    SETDIJ:  cpu time    1.6890: real time    1.6952
    TRIAL :  cpu time  115.4837: real time  115.8328
    CORREC:  cpu time  117.5972: real time  117.9641
    CHARGE:  cpu time    0.0509: real time    0.0510
    --------------------------------------------
      LOOP:  cpu time  234.8698: real time  235.5923

 eigenvalue-minimisations  :     0
 total energy-change (2. order) :-0.3273444E+01  (-0.7907180E+00)
 number of electron      56.9999819 magnetization       4.9999753
 augmentation part        9.5041351 magnetization       2.0451545

 Free energy of the ion-electron system (eV)
  ---------------------------------------------------
  alpha Z        PSCENC =       222.90208830
  Ewald energy   TEWEN  =     -3067.30795885
  -Hartree energ DENC   =     -1019.51023473
  -exchange      EXHF   =       149.85897018
  -V(xc)+E(xc)   XCENC  =       112.04094277
  PAW double counting   =      5689.10091528    -5651.34938012
  entropy T*S    EENTRO =        -0.00226757
  eigenvalues    EBANDS =      -400.44251950
  atomic energy  EATOM  =      3894.94555507
  ---------------------------------------------------
  free energy    TOTEN  =       -69.76352160 eV

  energy without entropy =      -69.76125403  energy(sigma->0) =      -69.76238782
  exchange ACFDT corr.  =        -0.00158152  see jH, gK, PRB 81, 115126


--------------------------------------------------------------------------------------------------------




--------------------------------------- Iteration      1(   9)  ---------------------------------------


    POTLOK:  cpu time    0.0486: real time    0.0486
    SETDIJ:  cpu time    1.6936: real time    1.6943
    TRIAL :  cpu time  115.5299: real time  116.9072
    CORREC:  cpu time  117.4295: real time  117.8006
    CHARGE:  cpu time    0.0510: real time    0.0511
    --------------------------------------------
      LOOP:  cpu time  234.7532: real time  236.5023

 eigenvalue-minimisations  :     0
 total energy-change (2. order) :-0.8033277E+00  (-0.2616650E+00)
 number of electron      56.9999819 magnetization       4.9999678
 augmentation part        9.6315737 magnetization       2.0189577

 Free energy of the ion-electron system (eV)
  ---------------------------------------------------
  alpha Z        PSCENC =       222.90208830
  Ewald energy   TEWEN  =     -3067.30795885
  -Hartree energ DENC   =     -1011.58432267
  -exchange      EXHF   =       149.38087561
  -V(xc)+E(xc)   XCENC  =       111.64255934
  PAW double counting   =      5397.44543003    -5358.86344303
  entropy T*S    EENTRO =        -0.00028937
  eigenvalues    EBANDS =      -409.12536549
  atomic energy  EATOM  =      3894.94555507
  ---------------------------------------------------
  free energy    TOTEN  =       -70.56684926 eV

  energy without entropy =      -70.56655989  energy(sigma->0) =      -70.56670457
  exchange ACFDT corr.  =        -0.00310963  see jH, gK, PRB 81, 115126


--------------------------------------------------------------------------------------------------------




--------------------------------------- Iteration      1(  10)  ---------------------------------------


    POTLOK:  cpu time    0.0487: real time    0.0487
    SETDIJ:  cpu time    1.7054: real time    1.7085
    TRIAL :  cpu time  115.0042: real time  116.7355
    CORREC:  cpu time  117.4707: real time  117.8412
    CHARGE:  cpu time    0.0510: real time    0.0510
    --------------------------------------------
      LOOP:  cpu time  234.2806: real time  236.3853

 eigenvalue-minimisations  :     0
 total energy-change (2. order) :-0.2709197E+00  (-0.1082858E+00)
 number of electron      56.9999819 magnetization       4.9999978
 augmentation part        9.6602942 magnetization       2.0141751

 Free energy of the ion-electron system (eV)
  ---------------------------------------------------
  alpha Z        PSCENC =       222.90208830
  Ewald energy   TEWEN  =     -3067.30795885
  -Hartree energ DENC   =     -1015.67673363
  -exchange      EXHF   =       149.32103688
  -V(xc)+E(xc)   XCENC  =       111.55763880
  PAW double counting   =      5355.47239415    -5316.61744807
  entropy T*S    EENTRO =        -0.00004521
  eigenvalues    EBANDS =      -405.43405222
  atomic energy  EATOM  =      3894.94555507
  ---------------------------------------------------
  free energy    TOTEN  =       -70.83776895 eV

  energy without entropy =      -70.83772374  energy(sigma->0) =      -70.83774635
  exchange ACFDT corr.  =        -0.00007942  see jH, gK, PRB 81, 115126


--------------------------------------------------------------------------------------------------------




--------------------------------------- Iteration      1(  11)  ---------------------------------------


    POTLOK:  cpu time    0.0486: real time    0.0486
    SETDIJ:  cpu time    1.7085: real time    1.7092
    TRIAL :  cpu time  115.5579: real time  115.9302
    CORREC:  cpu time  118.1834: real time  119.1399
    CHARGE:  cpu time    0.0509: real time    0.0511
    --------------------------------------------
      LOOP:  cpu time  235.5499: real time  236.8795

 eigenvalue-minimisations  :     0
 total energy-change (2. order) :-0.1100637E+00  (-0.6657766E-01)
 number of electron      56.9999819 magnetization       4.9999977
 augmentation part        9.6284003 magnetization       2.0053628

 Free energy of the ion-electron system (eV)
  ---------------------------------------------------
  alpha Z        PSCENC =       222.90208830
  Ewald energy   TEWEN  =     -3067.30795885
  -Hartree energ DENC   =     -1023.42821989
  -exchange      EXHF   =       149.81403057
  -V(xc)+E(xc)   XCENC  =       111.94090117
  PAW double counting   =      5390.67742901    -5351.79897779
  entropy T*S    EENTRO =        -0.00000004
  eigenvalues    EBANDS =      -398.69263505
  atomic energy  EATOM  =      3894.94555507
  ---------------------------------------------------
  free energy    TOTEN  =       -70.94783268 eV

  energy without entropy =      -70.94783264  energy(sigma->0) =      -70.94783266
  exchange ACFDT corr.  =        -0.00003332  see jH, gK, PRB 81, 115126


--------------------------------------------------------------------------------------------------------




--------------------------------------- Iteration      1(  12)  ---------------------------------------


    POTLOK:  cpu time    0.0486: real time    0.0487
    SETDIJ:  cpu time    1.7011: real time    1.7072
    TRIAL :  cpu time  115.4340: real time  115.8095
    CORREC:  cpu time  116.8481: real time  118.1376
    CHARGE:  cpu time    0.0510: real time    0.0510
    --------------------------------------------
      LOOP:  cpu time  234.0834: real time  235.7545

 eigenvalue-minimisations  :     0
 total energy-change (2. order) :-0.6745382E-01  (-0.3014174E-01)
 number of electron      56.9999819 magnetization       4.9999976
 augmentation part        9.6284676 magnetization       1.9865779

 Free energy of the ion-electron system (eV)
  ---------------------------------------------------
  alpha Z        PSCENC =       222.90208830
  Ewald energy   TEWEN  =     -3067.30795885
  -Hartree energ DENC   =     -1022.57897459
  -exchange      EXHF   =       149.86340280
  -V(xc)+E(xc)   XCENC  =       111.87909409
  PAW double counting   =      5439.86967610    -5401.05242029
  entropy T*S    EENTRO =        -0.00000000
  eigenvalues    EBANDS =      -399.53574908
  atomic energy  EATOM  =      3894.94555507
  ---------------------------------------------------
  free energy    TOTEN  =       -71.01528650 eV

  energy without entropy =      -71.01528650  energy(sigma->0) =      -71.01528650
  exchange ACFDT corr.  =        -0.00000004  see jH, gK, PRB 81, 115126


--------------------------------------------------------------------------------------------------------




--------------------------------------- Iteration      1(  13)  ---------------------------------------


    POTLOK:  cpu time    0.0486: real time    0.0487
    SETDIJ:  cpu time    1.6953: real time    1.7072
    TRIAL :  cpu time  115.8855: real time  116.2692
    CORREC:  cpu time  117.3422: real time  117.7046
    CHARGE:  cpu time    0.0510: real time    0.0510
    --------------------------------------------
      LOOP:  cpu time  235.0233: real time  235.7813

 eigenvalue-minimisations  :     0
 total energy-change (2. order) :-0.3018372E-01  (-0.1449486E-01)
 number of electron      56.9999819 magnetization       4.9999976
 augmentation part        9.6353640 magnetization       1.9727340

 Free energy of the ion-electron system (eV)
  ---------------------------------------------------
  alpha Z        PSCENC =       222.90208830
  Ewald energy   TEWEN  =     -3067.30795885
  -Hartree energ DENC   =     -1021.52416077
  -exchange      EXHF   =       149.86637095
  -V(xc)+E(xc)   XCENC  =       111.78578908
  PAW double counting   =      5429.93296518    -5391.19592208
  entropy T*S    EENTRO =        -0.00000000
  eigenvalues    EBANDS =      -400.45019709
  atomic energy  EATOM  =      3894.94555507
  ---------------------------------------------------
  free energy    TOTEN  =       -71.04547022 eV

  energy without entropy =      -71.04547022  energy(sigma->0) =      -71.04547022
[...]
     39      14.3412      0.00000
     40      14.3910      0.00000
     41      14.7714      0.00000
     42      16.5636      0.00000

 k-point    32 :       0.1667    0.1667    0.4286
  band No.  band energies     occupation 
      1     -44.8490      1.00000
      2     -18.8402      1.00000
      3     -17.9706      1.00000
      4     -17.9341      1.00000
      5     -17.5244      1.00000
      6     -17.5146      1.00000
      7     -17.1934      1.00000
      8      -5.5729      1.00000
      9      -5.5729      1.00000
     10      -5.1807      1.00000
     11      -4.8736      1.00000
     12      -4.5589      1.00000
     13      -4.2589      1.00000
     14      -3.8173      1.00000
     15      -3.3011      1.00000
     16      -2.9470      1.00000
     17      -2.1191      1.00000
     18      -1.5782      1.00000
     19      -0.9241      1.00000
     20      -0.8312      1.00000
     21      -0.6018      1.00000
     22      -0.5966      1.00000
     23      -0.2266      1.00000
     24      -0.0586      1.00000
     25       1.3926      1.00000
     26       1.7943      1.00000
     27       3.1193      0.00000
     28       3.1497      0.00000
     29       3.9505      0.00000
     30       4.1747      0.00000
     31       4.3767      0.00000
     32       7.3536      0.00000
     33       7.5698      0.00000
     34       7.8145      0.00000
     35       8.3736      0.00000
     36      12.2271      0.00000
     37      13.4235      0.00000
     38      14.4554      0.00000
     39      14.8230      0.00000
     40      14.8413      0.00000
     41      15.1765      0.00000
     42      16.2093      0.00000

 k-point    33 :       0.3333    0.1667    0.4286
  band No.  band energies     occupation 
      1     -44.8489      1.00000
      2     -18.5734      1.00000
      3     -18.1652      1.00000
      4     -18.0379      1.00000
      5     -17.5673      1.00000
      6     -17.4054      1.00000
      7     -17.2422      1.00000
      8      -5.6404      1.00000
      9      -5.5939      1.00000
     10      -5.3301      1.00000
     11      -5.1358      1.00000
     12      -4.5931      1.00000
     13      -4.5228      1.00000
     14      -3.3948      1.00000
     15      -2.8847      1.00000
     16      -2.5178      1.00000
     17      -2.3752      1.00000
     18      -1.7549      1.00000
     19      -1.2916      1.00000
     20      -0.7749      1.00000
     21      -0.4642      1.00000
     22      -0.4044      1.00000
     23      -0.1221      1.00000
     24       0.0851      1.00000
     25       1.5760      1.00000
     26       1.6212      1.00000
     27       3.0036      0.00000
     28       3.3312      0.00000
     29       3.8926      0.00000
     30       4.2412      0.00000
     31       4.3580      0.00000
     32       6.9847      0.00000
     33       7.3745      0.00000
     34       7.6597      0.00000
     35       8.3980      0.00000
     36      13.1930      0.00000
     37      13.8245      0.00000
     38      14.1111      0.00000
     39      14.3285      0.00000
     40      14.4539      0.00000
     41      14.8857      0.00000
     42      16.3861      0.00000

 k-point    34 :       0.3333    0.3333    0.4286
  band No.  band energies     occupation 
      1     -44.8489      1.00000
      2     -18.3443      1.00000
      3     -18.3442      1.00000
      4     -18.1240      1.00000
      5     -17.4138      1.00000
      6     -17.4137      1.00000
      7     -17.3557      1.00000
      8      -5.5918      1.00000
      9      -5.5506      1.00000
     10      -5.1367      1.00000
     11      -5.1367      1.00000
     12      -4.8970      1.00000
     13      -4.8970      1.00000
     14      -3.2360      1.00000
     15      -2.8865      1.00000
     16      -2.8865      1.00000
     17      -1.3664      1.00000
     18      -1.3459      1.00000
     19      -1.3459      1.00000
     20      -1.1307      1.00000
     21      -0.6772      1.00000
     22      -0.6771      1.00000
     23       0.0791      1.00000
     24       0.0792      1.00000
     25       1.4915      1.00000
     26       1.6069      1.00000
     27       3.3114      0.00000
     28       3.3114      0.00000
     29       3.8502      0.00000
     30       4.2424      0.00000
     31       4.2424      0.00000
     32       6.8570      0.00000
     33       7.4329      0.00000
     34       7.4329      0.00000
     35       8.4638      0.00000
     36      13.8222      0.00000
     37      13.8248      0.00000
     38      13.8249      0.00000
     39      14.2595      0.00000
     40      14.2595      0.00000
     41      14.8809      0.00000
     42      16.4241      0.00000

 k-point    35 :      -0.1667    0.3333    0.4286
  band No.  band energies     occupation 
      1     -44.8490      1.00000
      2     -18.8343      1.00000
      3     -17.9686      1.00000
      4     -17.8959      1.00000
      5     -17.5674      1.00000
      6     -17.5192      1.00000
      7     -17.2012      1.00000
      8      -5.6503      1.00000
      9      -5.5611      1.00000
     10      -5.0802      1.00000
     11      -4.7670      1.00000
     12      -4.4285      1.00000
     13      -4.1625      1.00000
     14      -3.8994      1.00000
     15      -3.3745      1.00000
     16      -3.1056      1.00000
     17      -2.1587      1.00000
     18      -1.5749      1.00000
     19      -0.9880      1.00000
     20      -0.8196      1.00000
     21      -0.6757      1.00000
     22      -0.6305      1.00000
     23      -0.1740      1.00000
     24      -0.0206      1.00000
     25       1.2810      1.00000
     26       1.8218      1.00000
     27       3.0443      0.00000
     28       3.3329      0.00000
     29       3.9702      0.00000
     30       4.0904      0.00000
     31       4.3405      0.00000
     32       7.4533      0.00000
     33       7.5138      0.00000
     34       7.9337      0.00000
     35       8.4630      0.00000
     36      12.1566      0.00000
     37      13.4253      0.00000
     38      14.3975      0.00000
     39      14.6320      0.00000
     40      15.0599      0.00000
     41      15.1750      0.00000
     42      16.3765      0.00000

 k-point    36 :      -0.3333    0.5000    0.4286
  band No.  band energies     occupation 
      1     -44.8489      1.00000
      2     -18.5556      1.00000
      3     -18.1421      1.00000
      4     -18.0113      1.00000
      5     -17.6118      1.00000
      6     -17.4342      1.00000
      7     -17.2548      1.00000
      8      -5.6723      1.00000
      9      -5.6146      1.00000
     10      -5.1918      1.00000
     11      -5.0425      1.00000
     12      -4.4312      1.00000
     13      -4.3683      1.00000
     14      -3.4820      1.00000
     15      -3.1250      1.00000
     16      -2.5425      1.00000
     17      -2.3975      1.00000
     18      -1.7666      1.00000
     19      -1.3518      1.00000
     20      -0.8764      1.00000
     21      -0.5677      1.00000
     22      -0.4493      1.00000
     23      -0.1199      1.00000
     24       0.1593      1.00000
     25       1.3860      1.00000
     26       1.6067      1.00000
     27       3.0629      0.00000
     28       3.5072      0.00000
     29       3.8782      0.00000
     30       4.1346      0.00000
     31       4.3063      0.00000
     32       7.1100      0.00000
     33       7.4976      0.00000
     34       7.8376      0.00000
     35       8.4565      0.00000
     36      13.0426      0.00000
     37      13.7741      0.00000
     38      13.9753      0.00000
     39      14.4184      0.00000
     40      14.6435      0.00000
     41      14.7961      0.00000
     42      16.3057      0.00000

 k-point    37 :      -0.3333   -0.3333    0.4286
  band No.  band energies     occupation 
      1     -44.8489      1.00000
      2     -18.3026      1.00000
      3     -18.3025      1.00000
      4     -18.1258      1.00000
      5     -17.4694      1.00000
      6     -17.4693      1.00000
      7     -17.3537      1.00000
      8      -5.6122      1.00000
      9      -5.5754      1.00000
     10      -4.9483      1.00000
     11      -4.9482      1.00000
     12      -4.7678      1.00000
     13      -4.7678      1.00000
     14      -3.1427      1.00000
     15      -3.1427      1.00000
     16      -3.0759      1.00000
     17      -1.4142      1.00000
     18      -1.4046      1.00000
     19      -1.4046      1.00000
     20      -1.0738      1.00000
     21      -0.8401      1.00000
     22      -0.8400      1.00000
     23       0.0658      1.00000
     24       0.0659      1.00000
     25       1.3363      1.00000
     26       1.4969      1.00000
     27       3.4851      0.00000
     28       3.4851      0.00000
     29       3.7937      0.00000
     30       4.1386      0.00000
     31       4.1386      0.00000
     32       7.0773      0.00000
     33       7.6494      0.00000
     34       7.6494      0.00000
     35       8.5325      0.00000
     36      13.4990      0.00000
     37      13.4991      0.00000
     38      13.9628      0.00000
     39      14.4343      0.00000
     40      14.6282      0.00000
     41      14.6283      0.00000
     42      16.3299      0.00000


--------------------------------------------------------------------------------------------------------


 soft charge-density along one line, spin component           1
         0         1         2         3         4         5         6         7         8         9
 total charge-density along one line
 
 soft charge-density along one line, spin component           2
         0         1         2         3         4         5         6         7         8         9
 total charge-density along one line
 
 pseudopotential strength for first ion, spin component:           1
-35.661   4.538   0.000  -0.000   0.000
  4.538 -11.110   0.000  -0.000   0.000
  0.000   0.000   0.071  -0.000   0.000
 -0.000  -0.000  -0.000   0.071   0.000
  0.000   0.000   0.000   0.000   0.071
 pseudopotential strength for first ion, spin component:           2
-35.658   4.539   0.000  -0.000   0.000
  4.539 -11.111   0.000  -0.000   0.000
  0.000   0.000   0.072  -0.000   0.000
 -0.000  -0.000  -0.000   0.072   0.000
  0.000   0.000   0.000   0.000   0.072
 total augmentation occupancy for first ion, spin component:           1
  1.998  -0.040  -0.000   0.000  -0.000
 -0.040   0.359   0.000   0.000   0.000
 -0.000   0.000   0.013   0.000  -0.000
  0.000   0.000   0.000   0.014  -0.000
 -0.000   0.000  -0.000  -0.000   0.013
 total augmentation occupancy for first ion, spin component:           2
 -0.000  -0.001   0.000  -0.000   0.000
 -0.001   0.009   0.000  -0.000   0.000
  0.000   0.000   0.000  -0.000  -0.000
 -0.000  -0.000  -0.000   0.000  -0.000
  0.000   0.000  -0.000  -0.000   0.000


------------------------ aborting loop because EDIFF is reached ----------------------------------------


 


 total charge     
 
# of ion       s       p       d       tot
------------------------------------------
    1        2.002   0.029   0.000   2.030
    2        0.709   1.018   6.705   8.432
    3        0.709   1.018   6.705   8.432
    4        1.586   3.408   0.000   4.994
    5        1.588   3.386   0.000   4.974
    6        1.587   3.402   0.000   4.989
    7        1.588   3.386   0.000   4.974
    8        1.586   3.408   0.000   4.994
    9        1.587   3.402   0.000   4.989
--------------------------------------------------
tot         12.942  22.457  13.411  48.810
 


 magnetization (x)
 
# of ion       s       p       d       tot
------------------------------------------
    1        0.001   0.000   0.000   0.001
    2        0.010   0.002   1.153   1.165
    3        0.010   0.002   1.153   1.165
    4        0.008   0.359   0.000   0.367
    5        0.008   0.375   0.000   0.383
    6        0.008   0.356   0.000   0.364
    7        0.008   0.375   0.000   0.383
    8        0.008   0.359   0.000   0.367
    9        0.008   0.356   0.000   0.364
--------------------------------------------------
tot          0.068   2.186   2.305   4.560
 
    FORLOC:  cpu time    0.0009: real time    0.0009
    FORHF :  cpu time  561.4055: real time  565.2824
    FORNL :  cpu time    0.5156: real time    0.5172
    STRESS:  cpu time    0.1607: real time    0.1608
    FORCOR:  cpu time    0.0481: real time    0.0481
    OFIELD:  cpu time    0.0001: real time    0.0001

  FORCE on cell =-STRESS in cart. coord.  units (eV):
  Direction    XX          YY          ZZ          XY          YZ          ZX
  --------------------------------------------------------------------------------------
  Alpha Z   216.22438   216.22438   216.22438
  Ewald    -781.56340  -781.56755 -1430.98936    -0.00000    -0.00000    -0.00010
  Hartree   467.32053   467.31966   139.20343    -0.00000     0.00000     0.00000
  E(xc)    -208.49663  -208.49663  -208.75907     0.00000     0.00000     0.00001
  Local    -649.05277  -649.04120   299.99012     0.00000    -0.00000     0.00011
  n-local  -107.46263  -107.74221  -111.90879    -0.32303    -0.61113    -0.15233
  augment   125.67608   125.67718   129.66006    -0.00000     0.00000     0.00026
  Kinetic  1036.86202  1039.31338  1068.15846     0.57848     0.86650    -0.15522
  Fock     -100.55253  -100.65602  -101.59436    -0.05614    -0.08303    -0.05969
  -------------------------------------------------------------------------------------
  Total      -0.00697    -0.00697    -0.01513    -0.00000     0.00000     0.00000
  in kB      -0.10596    -0.10596    -0.22986    -0.00000     0.00000     0.00000
  external pressure =       -0.15 kB  Pullay stress =        0.00 kB


 VOLUME and BASIS-vectors are now :
 -----------------------------------------------------------------------------
  energy-cutoff  :      500.00
  volume of cell :      105.45
      direct lattice vectors                 reciprocal lattice vectors
     2.582404402 -4.472855004  0.000000000     0.193618009 -0.111785426 -0.000000000
     2.582404402  4.472855004 -0.000000000     0.193618009  0.111785426 -0.000000000
     0.000000000 -0.000000000  4.564615670     0.000000000  0.000000000  0.219076495

  length of vectors
     5.164808262  5.164808262  4.564615670     0.223570828  0.223570828  0.219076495


 FORCES acting on ions:
    Electron-Ion                     Ewald-Force                    Non-Local-Force
 -----------------------------------------------------------------------------------------------
   -.276E-07 -.207E-07 0.110E-05   0.178E-14 0.355E-14 0.142E-13   0.149E-22 -.142E-23 -.610E-21
   -.438E-06 0.477E-03 0.201E-05   0.284E-13 -.132E-02 0.711E-13   0.573E-18 0.293E-16 0.649E-18
   0.443E-06 -.477E-03 -.203E-05   -.284E-13 0.132E-02 -.426E-13   0.866E-17 -.273E-16 0.231E-17
   0.960E+02 0.708E-06 -.164E+03   -.111E+03 -.178E-13 0.187E+03   0.130E+02 -.379E-16 -.195E+02
   -.480E+02 -.832E+02 -.164E+03   0.555E+02 0.961E+02 0.187E+03   -.651E+01 -.113E+02 -.195E+02
   -.480E+02 0.832E+02 -.164E+03   0.555E+02 -.961E+02 0.187E+03   -.651E+01 0.113E+02 -.195E+02
   0.480E+02 0.832E+02 0.164E+03   -.555E+02 -.961E+02 -.187E+03   0.651E+01 0.113E+02 0.195E+02
   -.960E+02 -.877E-06 0.164E+03   0.111E+03 0.160E-13 -.187E+03   -.130E+02 0.395E-16 0.195E+02
   0.480E+02 -.832E+02 0.164E+03   -.555E+02 0.961E+02 -.187E+03   0.651E+01 -.113E+02 0.195E+02
 -----------------------------------------------------------------------------------------------
   -.309E-07 -.620E-07 0.104E-05   0.000E+00 0.426E-13 -.284E-13   -.888E-15 0.000E+00 -.355E-14
 
 
 POSITION                                       TOTAL-FORCE (eV/Angst)
 -----------------------------------------------------------------------------------
      0.00000     -0.00000      0.00000        -0.000000      0.000000      0.000000
      2.58240      1.49095      2.28231        -0.000000      0.000000     -0.000000
      2.58240     -1.49095      2.28231        -0.000000     -0.000000      0.000000
      1.84197      0.00000      3.29683        -0.006920     -0.000000      0.026014
      1.66142      2.87766      3.29683         0.003460      0.005993      0.026014
      1.66142     -2.87766      3.29683         0.003460     -0.005993      0.026014
      3.50339     -2.87766      1.26778        -0.003460     -0.005993     -0.026014
      3.32284     -0.00000      1.26778         0.006920     -0.000000     -0.026014
      3.50339      2.87766      1.26778        -0.003460      0.005993     -0.026014
 -----------------------------------------------------------------------------------
    total drift:                               -0.000000     -0.000000      0.000001


--------------------------------------------------------------------------------------------------------



  FREE ENERGIE OF THE ION-ELECTRON SYSTEM (eV)
  ---------------------------------------------------
  free  energy   TOTEN  =       -71.08256930 eV

  energy  without entropy=      -71.08256930  energy(sigma->0) =      -71.08256930
 
 d Force = 0.2456082E-03[ 0.978E-04, 0.393E-03]  d Energy = 0.6466026E-03-0.401E-03
 d Force = 0.9298050E+00[ 0.928E+00, 0.931E+00]  d Ewald  =-0.1196221E+01 0.213E+01


--------------------------------------------------------------------------------------------------------


    POTLOK:  cpu time    1.7472: real time    1.7582


--------------------------------------------------------------------------------------------------------




--------------------------------------------------------------------------------------------------------


  
 reached required accuracy - stopping structural energy minimisation
     LOOP+:  cpu time 3244.5163: real time 3266.0686
    4ORBIT:  cpu time    0.0000: real time    0.0000
 


 total charge     
 
# of ion       s       p       d       tot
------------------------------------------
    1        2.002   0.029   0.000   2.030
    2        0.709   1.018   6.705   8.432
    3        0.709   1.018   6.705   8.432
    4        1.586   3.408   0.000   4.994
    5        1.588   3.386   0.000   4.974
    6        1.587   3.402   0.000   4.989
    7        1.588   3.386   0.000   4.974
    8        1.586   3.408   0.000   4.994
    9        1.587   3.402   0.000   4.989
--------------------------------------------------
tot         12.942  22.457  13.411  48.810
 


 magnetization (x)
 
# of ion       s       p       d       tot
------------------------------------------
    1        0.001   0.000   0.000   0.001
    2        0.010   0.002   1.153   1.165
    3        0.010   0.002   1.153   1.165
    4        0.008   0.359   0.000   0.367
    5        0.008   0.375   0.000   0.383
    6        0.008   0.356   0.000   0.364
    7        0.008   0.375   0.000   0.383
    8        0.008   0.359   0.000   0.367
    9        0.008   0.356   0.000   0.364
--------------------------------------------------
tot          0.068   2.186   2.305   4.560
 

 total amount of memory used by VASP MPI-rank0    86227. kBytes
=======================================================================

   base      :      30000. kBytes
   nonlr-proj:      23699. kBytes
   fftplans  :        459. kBytes
   grid      :       2508. kBytes
   one-center:        279. kBytes
   HF        :        194. kBytes
   wavefun   :      29088. kBytes
 
  
  
 General timing and accounting informations for this job:
 ========================================================
  
                  Total CPU time used (sec):    37508.102
                            User time (sec):    37475.905
                          System time (sec):       32.199
                         Elapsed time (sec):    37772.453
  
                   Maximum memory used (kb):      256876.
                   Average memory used (kb):           0.
  
                          Minor page faults:      1170439
                          Major page faults:            0
                 Voluntary context switches:        14543
