 vasp.5.4.4.18Apr17-6-g9f103f2a35 (build Dec 07 2017 12:23:07) complex          
  
 executed on     UA-Leibniz-2016b date 2018.07.02  00:41:51
 running on  112 total cores
 distrk:  each k-point on   28 cores,    4 groups
 distr:  one band on NCORES_PER_BAND=   1 cores,   28 groups


--------------------------------------------------------------------------------------------------------


 INCAR:
 POTCAR:    PAW_PBE Li_sv 10Sep2004               
 POTCAR:    PAW_PBE Mn_pv 02Aug2007               
 POTCAR:    PAW_PBE O 08Apr2002                   

 ----------------------------------------------------------------------------- 
|                                                                             |
|           W    W    AA    RRRRR   N    N  II  N    N   GGGG   !!!           |
|           W    W   A  A   R    R  NN   N  II  NN   N  G    G  !!!           |
|           W    W  A    A  R    R  N N  N  II  N N  N  G       !!!           |
|           W WW W  AAAAAA  RRRRR   N  N N  II  N  N N  G  GGG   !            |
|           WW  WW  A    A  R   R   N   NN  II  N   NN  G    G                |
|           W    W  A    A  R    R  N    N  II  N    N   GGGG   !!!           |
|                                                                             |
|      For optimal performance we recommend to set                            |
|        NCORE= 4 - approx SQRT( number of cores)                             |
|      NCORE specifies how many cores store one orbital (NPAR=cpu/NCORE).     |
|      This setting can  greatly improve the performance of VASP for DFT.     |
|      The default,   NCORE=1            might be grossly inefficient         |
|      on modern multi-core architectures or massively parallel machines.     |
|      Do your own testing !!!!                                               |
|      Unfortunately you need to use the default for GW and RPA calculations. |
|      (for HF NCORE is supported but not extensively tested yet)             |
|                                                                             |
 ----------------------------------------------------------------------------- 


 ----------------------------------------------------------------------------- 
|                                                                             |
|           W    W    AA    RRRRR   N    N  II  N    N   GGGG   !!!           |
|           W    W   A  A   R    R  NN   N  II  NN   N  G    G  !!!           |
|           W    W  A    A  R    R  N N  N  II  N N  N  G       !!!           |
|           W WW W  AAAAAA  RRRRR   N  N N  II  N  N N  G  GGG   !            |
|           WW  WW  A    A  R   R   N   NN  II  N   NN  G    G                |
|           W    W  A    A  R    R  N    N  II  N    N   GGGG   !!!           |
|                                                                             |
|      You have enabled k-point parallelism (KPAR>1).                         |
|      This developmental code was originally  written by Paul Kent at ORNL,  |
|      and carefully double checked in Vienna.                                |
|      GW as well as linear response parallelism added by Martijn Marsman     |
|      and Georg Kresse.                                                      |
|      Carefully verify results versus KPAR=1.                                |
|      Report problems to Paul Kent and Vienna.                               |
|                                                                             |
 ----------------------------------------------------------------------------- 

 POTCAR:    PAW_PBE Li_sv 10Sep2004               
   VRHFIN =Li: 1s2s2p                                                           
   LEXCH  = PE                                                                  
   EATOM  =   202.7858 eV,   14.9043 Ry                                         
                                                                                
   TITEL  = PAW_PBE Li_sv 10Sep2004                                             
   LULTRA =        F    use ultrasoft PP ?                                      
   IUNSCR =        0    unscreen: 0-lin 1-nonlin 2-no                           
   RPACOR =    0.000    partial core radius                                     
   POMASS =    7.010; ZVAL   =    3.000    mass and valenz                      
   RCORE  =    1.700    outmost cutoff radius                                   
   RWIGS  =    2.050; RWIGS  =    1.085    wigner-seitz radius (au A)           
   ENMAX  =  499.034; ENMIN  =  374.276 eV                                      
   ICORE  =        2    local potential                                         
   LCOR   =        T    correct aug charges                                     
   LPAW   =        T    paw PP                                                  
   EAUG   =  628.945                                                            
   RMAX   =    1.732    core radius for proj-oper                               
   RAUG   =    1.300    factor for augmentation sphere                          
   RDEP   =    1.728    radius for radial grids                                 
   RDEPT  =    1.329    core radius for aug-charge                              
                                                                                
   Atomic configuration                                                         
    4 entries                                                                   
     n  l   j            E        occ.                                          
     1  0  0.50       -51.8549   2.0000                                         
     2  0  0.50        -2.8742   1.0000                                         
     2  1  0.50        -1.3606   0.0000                                         
     3  2  1.50        -1.3606   0.0000                                         
   Description                                                                  
     l       E           TYP  RCUT    TYP  RCUT                                 
     0    -51.8548813     23  1.400                                             
     0     -2.8742052     23  1.700                                             
     1     -1.3605826     23  1.400                                             
     2     -1.3605826     23  1.400                                             
  local pseudopotential read in
  atomic valenz-charges read in
  non local Contribution for L=           0  read in
    real space projection operators read in
  non local Contribution for L=           0  read in
    real space projection operators read in
  non local Contribution for L=           1  read in
    real space projection operators read in
    PAW grid and wavefunctions read in
 
   number of l-projection  operators is LMAX  =           3
   number of lm-projection operators is LMMAX =           5
 
 POTCAR:    PAW_PBE Mn_pv 02Aug2007               
   VRHFIN =Mn: 3p4s3d                                                           
   LEXCH  = PE                                                                  
   EATOM  =  2025.2664 eV,  148.8529 Ry                                         
                                                                                
   TITEL  = PAW_PBE Mn_pv 02Aug2007                                             
   LULTRA =        F    use ultrasoft PP ?                                      
   IUNSCR =        1    unscreen: 0-lin 1-nonlin 2-no                           
   RPACOR =    2.080    partial core radius                                     
   POMASS =   54.938; ZVAL   =   13.000    mass and valenz                      
   RCORE  =    2.300    outmost cutoff radius                                   
   RWIGS  =    2.500; RWIGS  =    1.323    wigner-seitz radius (au A)           
   ENMAX  =  269.864; ENMIN  =  202.398 eV                                      
   ICORE  =        3    local potential                                         
   LCOR   =        T    correct aug charges                                     
   LPAW   =        T    paw PP                                                  
   EAUG   =  569.085                                                            
   DEXC   =    0.000                                                            
   RMAX   =    2.343    core radius for proj-oper                               
   RAUG   =    1.300    factor for augmentation sphere                          
   RDEP   =    2.338    radius for radial grids                                 
   RDEPT  =    1.798    core radius for aug-charge                              
                                                                                
   Atomic configuration                                                         
    8 entries                                                                   
     n  l   j            E        occ.                                          
     1  0  0.50     -6424.8287   2.0000                                         
     2  0  0.50      -739.1154   2.0000                                         
     2  1  1.50      -625.3949   6.0000                                         
     3  0  0.50       -81.6100   2.0000                                         
     3  1  1.50       -50.4667   6.0000                                         
     3  2  2.50        -3.3745   6.0000                                         
     4  0  0.50        -4.1331   1.0000                                         
     4  3  2.50        -1.3606   0.0000                                         
   Description                                                                  
     l       E           TYP  RCUT    TYP  RCUT                                 
     1    -50.4666628     23  2.000                                             
     1     -1.3605826     23  2.000                                             
     2     -3.3744729     23  2.300                                             
     2     -4.7350555     23  2.300                                             
     0     -4.1331431     23  2.300                                             
     0      7.6656591     23  2.300                                             
     3      9.5240782     23  2.300                                             
  local pseudopotential read in
  partial core-charges read in
  partial kinetic energy density read in
  atomic valenz-charges read in
  non local Contribution for L=           1  read in
    real space projection operators read in
  non local Contribution for L=           1  read in
    real space projection operators read in
  non local Contribution for L=           2  read in
    real space projection operators read in
  non local Contribution for L=           2  read in
    real space projection operators read in
  non local Contribution for L=           0  read in
    real space projection operators read in
  non local Contribution for L=           0  read in
    real space projection operators read in
    PAW grid and wavefunctions read in
 
   number of l-projection  operators is LMAX  =           6
   number of lm-projection operators is LMMAX =          18
 
 POTCAR:    PAW_PBE O 08Apr2002                   
   VRHFIN =O: s2p4                                                              
   LEXCH  = PE                                                                  
   EATOM  =   432.3788 eV,   31.7789 Ry                                         
                                                                                
   TITEL  = PAW_PBE O 08Apr2002                                                 
   LULTRA =        F    use ultrasoft PP ?                                      
   IUNSCR =        1    unscreen: 0-lin 1-nonlin 2-no                           
   RPACOR =    1.200    partial core radius                                     
   POMASS =   16.000; ZVAL   =    6.000    mass and valenz                      
   RCORE  =    1.520    outmost cutoff radius                                   
   RWIGS  =    1.550; RWIGS  =    0.820    wigner-seitz radius (au A)           
   ENMAX  =  400.000; ENMIN  =  300.000 eV                                      
   ICORE  =        2    local potential                                         
   LCOR   =        T    correct aug charges                                     
   LPAW   =        T    paw PP                                                  
   EAUG   =  605.392                                                            
   DEXC   =    0.000                                                            
   RMAX   =    1.553    core radius for proj-oper                               
   RAUG   =    1.300    factor for augmentation sphere                          
   RDEP   =    1.550    radius for radial grids                                 
   RDEPT  =    1.329    core radius for aug-charge                              
                                                                                
   Atomic configuration                                                         
    4 entries                                                                   
     n  l   j            E        occ.                                          
     1  0  0.50      -514.6923   2.0000                                         
     2  0  0.50       -23.9615   2.0000                                         
     2  1  0.50        -9.0305   4.0000                                         
     3  2  1.50        -9.5241   0.0000                                         
   Description                                                                  
     l       E           TYP  RCUT    TYP  RCUT                                 
     0    -23.9615318     23  1.200                                             
     0     -9.5240782     23  1.200                                             
     1     -9.0304911     23  1.520                                             
     1      8.1634956     23  1.520                                             
     2     -9.5240782      7  1.500                                             
  local pseudopotential read in
  partial core-charges read in
  partial kinetic energy density read in
  kinetic energy density of atom read in
  atomic valenz-charges read in
  non local Contribution for L=           0  read in
    real space projection operators read in
  non local Contribution for L=           0  read in
    real space projection operators read in
  non local Contribution for L=           1  read in
    real space projection operators read in
  non local Contribution for L=           1  read in
    real space projection operators read in
    PAW grid and wavefunctions read in
 
   number of l-projection  operators is LMAX  =           4
   number of lm-projection operators is LMMAX =           8
 
 Optimization of the real space projectors (new method)

 maximal supplied QI-value         = 22.11
 optimisation between [QCUT,QGAM] = [ 11.28, 22.77] = [ 35.61,145.23] Ry 
 Optimized for a Real-space Cutoff    1.07 Angstroem

   l    n(q)    QCUT    max X(q) W(low)/X(q) W(high)/X(q)  e(spline) 
   0      7    11.276    10.506    0.35E-04    0.79E-04    0.14E-07
   0      7    11.276     8.367    0.77E-04    0.18E-03    0.29E-07
   1      7    11.276     8.983    0.48E-03    0.57E-03    0.79E-07
 Optimization of the real space projectors (new method)

 maximal supplied QI-value         = 16.25
 optimisation between [QCUT,QGAM] = [ 11.38, 22.75] = [ 36.24,144.96] Ry 
 Optimized for a Real-space Cutoff    1.35 Angstroem

   l    n(q)    QCUT    max X(q) W(low)/X(q) W(high)/X(q)  e(spline) 
   1      9    11.376     3.658    0.21E-03    0.20E-03    0.75E-07
   1      9    11.376     5.612    0.42E-03    0.37E-03    0.14E-06
   2      8    11.376    55.373    0.42E-03    0.47E-03    0.17E-06
   2      8    11.376    50.863    0.43E-03    0.48E-03    0.17E-06
   0      9    11.376    79.536    0.15E-03    0.13E-03    0.43E-07
   0      9    11.376    38.668    0.14E-03    0.12E-03    0.40E-07
 Optimization of the real space projectors (new method)

 maximal supplied QI-value         = 24.76
 optimisation between [QCUT,QGAM] = [ 11.39, 22.77] = [ 36.31,145.25] Ry 
 Optimized for a Real-space Cutoff    1.00 Angstroem

   l    n(q)    QCUT    max X(q) W(low)/X(q) W(high)/X(q)  e(spline) 
   0      7    11.387    20.381    0.39E-03    0.13E-02    0.15E-06
   0      7    11.387    15.268    0.42E-03    0.14E-02    0.17E-06
   1      6    11.387     5.964    0.41E-03    0.11E-02    0.17E-06
   1      6    11.387     5.382    0.39E-03    0.87E-03    0.15E-06
  PAW_PBE Li_sv 10Sep2004               :
 energy of atom  1       EATOM= -202.7858
 kinetic energy error for atom=    0.0143 (will be added to EATOM!!)
  PAW_PBE Mn_pv 02Aug2007               :
 energy of atom  2       EATOM=-2025.2664
 kinetic energy error for atom=    0.0062 (will be added to EATOM!!)
  PAW_PBE O 08Apr2002                   :
 energy of atom  3       EATOM= -432.3788
 kinetic energy error for atom=    0.0224 (will be added to EATOM!!)
 
 
 POSCAR: Li1 Mn2 O6                              
  positions in direct lattice
  velocities in cartesian coordinates
 exchange correlation table for  LEXCH =        8
   RHO(1)=    0.500       N(1)  =     2000
   RHO(2)=  100.500       N(2)  =     4000
 


--------------------------------------------------------------------------------------------------------


 ion  position               nearest neighbor table
   1  0.000  0.000  0.000-   5 2.03   7 2.03   6 2.03   9 2.03   8 2.03   4 2.03
   2  0.333  0.667  0.500-   9 1.87   4 1.87   5 1.87   8 1.87   7 1.87   6 1.87   3 2.85   3 2.85
                             3 2.85
   3  0.667  0.333  0.500-   6 1.87   8 1.87   7 1.87   4 1.87   5 1.87   9 1.87   2 2.85   2 2.85
                             2 2.85
   4  0.640  0.640  0.246-   2 1.87   3 1.87   1 2.03
   5  0.360  1.000  0.246-   2 1.87   3 1.87   1 2.03
   6  1.000  0.360  0.246-   3 1.87   2 1.87   1 2.03
   7  0.640  0.000  0.754-   3 1.87   2 1.87   1 2.03
   8  0.360  0.360  0.754-   3 1.87   2 1.87   1 2.03
   9  0.000  0.640  0.754-   2 1.87   3 1.87   1 2.03
 
  LATTYP: Found a simple monoclinic cell.
 ALAT       =     4.9329848589
 B/A-ratio  =     0.7998428277
 C/A-ratio  =     1.7320881446
 COS(beta)  =    -0.8660308311
  
  Lattice vectors:
  
 A1 = (   2.4663930860,  -4.2721474020,   0.0011571172)
 A2 = (   0.0006351022,  -0.0006461673,  -3.9456124545)
 A3 = (   0.0001058485,   8.5443644845,  -0.0013481339)


Analysis of symmetry for initial positions (statically):
=====================================================================
 Subroutine PRICEL returns:
 Original cell was already a primitive cell.
 

 Routine SETGRP: Setting up the symmetry group for a 
 simple monoclinic supercell.


 Subroutine GETGRP returns: Found  2 space group operations
 (whereof  2 operations were pure point group operations)
 out of a pool of  4 trial point group operations.


The static configuration has the point symmetry S_2 .


Analysis of symmetry for dynamics (positions and initial velocities):
=====================================================================
 Subroutine PRICEL returns:
 Original cell was already a primitive cell.
 

 Routine SETGRP: Setting up the symmetry group for a 
 simple monoclinic supercell.


 Subroutine GETGRP returns: Found  2 space group operations
 (whereof  2 operations were pure point group operations)
 out of a pool of  4 trial point group operations.


The dynamic configuration has the point symmetry S_2 .


Analysis of structural, dynamic, and magnetic symmetry:
=====================================================================
 Subroutine PRICEL returns:
 Original cell was already a primitive cell.
 

 Routine SETGRP: Setting up the symmetry group for a 
 simple monoclinic supercell.


 Subroutine GETGRP returns: Found  2 space group operations
 (whereof  2 operations were pure point group operations)
 out of a pool of  4 trial point group operations.


The magnetic configuration has the point symmetry S_2 .


 Subroutine INISYM returns: Found  2 space group operations
 (whereof  2 operations are pure point group operations),
 and found     1 'primitive' translations

 
 
 KPOINTS: pymatgen 4.7.6+ generated KPOINTS with g

Automatic generation of k-mesh.
Space group operators:
 irot       det(A)        alpha          n_x          n_y          n_z        tau_x        tau_y        tau_z
    1     1.000000     0.000000     1.000000     0.000000     0.000000     0.000000     0.000000     0.000000
    2    -1.000000     0.000000     1.000000     0.000000     0.000000     0.000000     0.000000     0.000000
 
 Subroutine IBZKPT returns following result:
 ===========================================
 
 Found    172 irreducible k-points:
 
 Following reciprocal coordinates:
            Coordinates               Weight
  0.000000  0.000000  0.000000      1.000000
  0.142857 -0.000000 -0.000000      2.000000
  0.285714 -0.000000 -0.000000      2.000000
  0.428571 -0.000000  0.000000      2.000000
  0.000000  0.142857  0.000000      2.000000
  0.142857  0.142857 -0.000000      2.000000
  0.285714  0.142857 -0.000000      2.000000
  0.428571  0.142857 -0.000000      2.000000
 -0.428571  0.142857 -0.000000      2.000000
 -0.285714  0.142857  0.000000      2.000000
 -0.142857  0.142857  0.000000      2.000000
  0.000000  0.285714  0.000000      2.000000
  0.142857  0.285714 -0.000000      2.000000
  0.285714  0.285714  0.000000      2.000000
  0.428571  0.285714 -0.000000      2.000000
 -0.428571  0.285714  0.000000      2.000000
 -0.285714  0.285714  0.000000      2.000000
 -0.142857  0.285714 -0.000000      2.000000
  0.000000  0.428571 -0.000000      2.000000
  0.142857  0.428571 -0.000000      2.000000
  0.285714  0.428571 -0.000000      2.000000
  0.428571  0.428571 -0.000000      2.000000
 -0.428571  0.428571  0.000000      2.000000
 -0.285714  0.428571 -0.000000      2.000000
 -0.142857  0.428571 -0.000000      2.000000
 -0.000000  0.000000  0.142857      2.000000
  0.142857  0.000000  0.142857      2.000000
  0.285714 -0.000000  0.142857      2.000000
  0.428571  0.000000  0.142857      2.000000
 -0.428571 -0.000000  0.142857      2.000000
 -0.285714 -0.000000  0.142857      2.000000
 -0.142857  0.000000  0.142857      2.000000
 -0.000000  0.142857  0.142857      2.000000
  0.142857  0.142857  0.142857      2.000000
  0.285714  0.142857  0.142857      2.000000
  0.428571  0.142857  0.142857      2.000000
 -0.428571  0.142857  0.142857      2.000000
 -0.285714  0.142857  0.142857      2.000000
 -0.142857  0.142857  0.142857      2.000000
 -0.000000  0.285714  0.142857      2.000000
  0.142857  0.285714  0.142857      2.000000
  0.285714  0.285714  0.142857      2.000000
  0.428571  0.285714  0.142857      2.000000
 -0.428571  0.285714  0.142857      2.000000
 -0.285714  0.285714  0.142857      2.000000
 -0.142857  0.285714  0.142857      2.000000
 -0.000000  0.428571  0.142857      2.000000
  0.142857  0.428571  0.142857      2.000000
  0.285714  0.428571  0.142857      2.000000
  0.428571  0.428571  0.142857      2.000000
 -0.428571  0.428571  0.142857      2.000000
 -0.285714  0.428571  0.142857      2.000000
 -0.142857  0.428571  0.142857      2.000000
 -0.000000 -0.428571  0.142857      2.000000
  0.142857 -0.428571  0.142857      2.000000
  0.285714 -0.428571  0.142857      2.000000
  0.428571 -0.428571  0.142857      2.000000
 -0.428571 -0.428571  0.142857      2.000000
 -0.285714 -0.428571  0.142857      2.000000
 -0.142857 -0.428571  0.142857      2.000000
 -0.000000 -0.285714  0.142857      2.000000
  0.142857 -0.285714  0.142857      2.000000
  0.285714 -0.285714  0.142857      2.000000
  0.428571 -0.285714  0.142857      2.000000
 -0.428571 -0.285714  0.142857      2.000000
 -0.285714 -0.285714  0.142857      2.000000
 -0.142857 -0.285714  0.142857      2.000000
 -0.000000 -0.142857  0.142857      2.000000
  0.142857 -0.142857  0.142857      2.000000
  0.285714 -0.142857  0.142857      2.000000
  0.428571 -0.142857  0.142857      2.000000
 -0.428571 -0.142857  0.142857      2.000000
 -0.285714 -0.142857  0.142857      2.000000
 -0.142857 -0.142857  0.142857      2.000000
 -0.000000 -0.000000  0.285714      2.000000
  0.142857 -0.000000  0.285714      2.000000
  0.285714  0.000000  0.285714      2.000000
  0.428571  0.000000  0.285714      2.000000
 -0.428571 -0.000000  0.285714      2.000000
 -0.285714  0.000000  0.285714      2.000000
 -0.142857  0.000000  0.285714      2.000000
 -0.000000  0.142857  0.285714      2.000000
  0.142857  0.142857  0.285714      2.000000
  0.285714  0.142857  0.285714      2.000000
  0.428571  0.142857  0.285714      2.000000
 -0.428571  0.142857  0.285714      2.000000
 -0.285714  0.142857  0.285714      2.000000
 -0.142857  0.142857  0.285714      2.000000
  0.000000  0.285714  0.285714      2.000000
  0.142857  0.285714  0.285714      2.000000
  0.285714  0.285714  0.285714      2.000000
  0.428571  0.285714  0.285714      2.000000
 -0.428571  0.285714  0.285714      2.000000
 -0.285714  0.285714  0.285714      2.000000
 -0.142857  0.285714  0.285714      2.000000
 -0.000000  0.428571  0.285714      2.000000
  0.142857  0.428571  0.285714      2.000000
  0.285714  0.428571  0.285714      2.000000
  0.428571  0.428571  0.285714      2.000000
 -0.428571  0.428571  0.285714      2.000000
 -0.285714  0.428571  0.285714      2.000000
 -0.142857  0.428571  0.285714      2.000000
 -0.000000 -0.428571  0.285714      2.000000
  0.142857 -0.428571  0.285714      2.000000
  0.285714 -0.428571  0.285714      2.000000
  0.428571 -0.428571  0.285714      2.000000
 -0.428571 -0.428571  0.285714      2.000000
 -0.285714 -0.428571  0.285714      2.000000
 -0.142857 -0.428571  0.285714      2.000000
 -0.000000 -0.285714  0.285714      2.000000
  0.142857 -0.285714  0.285714      2.000000
  0.285714 -0.285714  0.285714      2.000000
  0.428571 -0.285714  0.285714      2.000000
 -0.428571 -0.285714  0.285714      2.000000
 -0.285714 -0.285714  0.285714      2.000000
 -0.142857 -0.285714  0.285714      2.000000
 -0.000000 -0.142857  0.285714      2.000000
  0.142857 -0.142857  0.285714      2.000000
  0.285714 -0.142857  0.285714      2.000000
  0.428571 -0.142857  0.285714      2.000000
 -0.428571 -0.142857  0.285714      2.000000
 -0.285714 -0.142857  0.285714      2.000000
 -0.142857 -0.142857  0.285714      2.000000
 -0.000000  0.000000  0.428571      2.000000
  0.142857 -0.000000  0.428571      2.000000
  0.285714 -0.000000  0.428571      2.000000
  0.428571 -0.000000  0.428571      2.000000
 -0.428571 -0.000000  0.428571      2.000000
 -0.285714 -0.000000  0.428571      2.000000
 -0.142857 -0.000000  0.428571      2.000000
 -0.000000  0.142857  0.428571      2.000000
  0.142857  0.142857  0.428571      2.000000
  0.285714  0.142857  0.428571      2.000000
  0.428571  0.142857  0.428571      2.000000
 -0.428571  0.142857  0.428571      2.000000
 -0.285714  0.142857  0.428571      2.000000
 -0.142857  0.142857  0.428571      2.000000
  0.000000  0.285714  0.428571      2.000000
  0.142857  0.285714  0.428571      2.000000
  0.285714  0.285714  0.428571      2.000000
  0.428571  0.285714  0.428571      2.000000
 -0.428571  0.285714  0.428571      2.000000
 -0.285714  0.285714  0.428571      2.000000
 -0.142857  0.285714  0.428571      2.000000
 -0.000000  0.428571  0.428571      2.000000
  0.142857  0.428571  0.428571      2.000000
  0.285714  0.428571  0.428571      2.000000
  0.428571  0.428571  0.428571      2.000000
 -0.428571  0.428571  0.428571      2.000000
 -0.285714  0.428571  0.428571      2.000000
 -0.142857  0.428571  0.428571      2.000000
 -0.000000 -0.428571  0.428571      2.000000
  0.142857 -0.428571  0.428571      2.000000
  0.285714 -0.428571  0.428571      2.000000
  0.428571 -0.428571  0.428571      2.000000
 -0.428571 -0.428571  0.428571      2.000000
 -0.285714 -0.428571  0.428571      2.000000
 -0.142857 -0.428571  0.428571      2.000000
 -0.000000 -0.285714  0.428571      2.000000
  0.142857 -0.285714  0.428571      2.000000
  0.285714 -0.285714  0.428571      2.000000
  0.428571 -0.285714  0.428571      2.000000
 -0.428571 -0.285714  0.428571      2.000000
 -0.285714 -0.285714  0.428571      2.000000
 -0.142857 -0.285714  0.428571      2.000000
  0.000000 -0.142857  0.428571      2.000000
  0.142857 -0.142857  0.428571      2.000000
  0.285714 -0.142857  0.428571      2.000000
  0.428571 -0.142857  0.428571      2.000000
 -0.428571 -0.142857  0.428571      2.000000
 -0.285714 -0.142857  0.428571      2.000000
 -0.142857 -0.142857  0.428571      2.000000
 
 Following cartesian coordinates:
            Coordinates               Weight
  0.000000  0.000000  0.000000      1.000000
  0.028960  0.016719  0.000002      2.000000
  0.057920  0.033438  0.000004      2.000000
  0.086880  0.050157  0.000006      2.000000
 -0.000000  0.033439 -0.000005      2.000000
  0.028959  0.050158 -0.000004      2.000000
  0.057919  0.066877 -0.000002      2.000000
  0.086879  0.083596  0.000000      2.000000
 -0.086880 -0.016718 -0.000011      2.000000
 -0.057920  0.000001 -0.000009      2.000000
 -0.028960  0.016720 -0.000007      2.000000
 -0.000001  0.066878 -0.000011      2.000000
  0.028959  0.083597 -0.000009      2.000000
  0.057919  0.100316 -0.000007      2.000000
  0.086879  0.117035 -0.000005      2.000000
 -0.086881  0.016721 -0.000017      2.000000
 -0.057921  0.033440 -0.000015      2.000000
 -0.028961  0.050159 -0.000013      2.000000
 -0.000001  0.100317 -0.000016      2.000000
  0.028958  0.117036 -0.000015      2.000000
  0.057918  0.133755 -0.000013      2.000000
  0.086878  0.150474 -0.000011      2.000000
 -0.086881  0.050159 -0.000022      2.000000
 -0.057921  0.066879 -0.000020      2.000000
 -0.028961  0.083598 -0.000018      2.000000
 -0.000007  0.000006  0.036207      2.000000
  0.028953  0.016725  0.036209      2.000000
  0.057913  0.033444  0.036210      2.000000
  0.086873  0.050163  0.036212      2.000000
 -0.086887 -0.050152  0.036201      2.000000
 -0.057927 -0.033432  0.036203      2.000000
 -0.028967 -0.016713  0.036205      2.000000
 -0.000008  0.033445  0.036201      2.000000
  0.028952  0.050164  0.036203      2.000000
  0.057912  0.066883  0.036205      2.000000
  0.086872  0.083602  0.036207      2.000000
 -0.086887 -0.016713  0.036195      2.000000
 -0.057927  0.000006  0.036197      2.000000
 -0.028967  0.016726  0.036199      2.000000
 -0.000008  0.066884  0.036196      2.000000
  0.028952  0.083603  0.036198      2.000000
  0.057912  0.100322  0.036199      2.000000
  0.086872  0.117041  0.036201      2.000000
 -0.086888  0.016726  0.036190      2.000000
 -0.057928  0.033445  0.036192      2.000000
 -0.028968  0.050164  0.036194      2.000000
 -0.000009  0.100322  0.036190      2.000000
  0.028951  0.117042  0.036192      2.000000
  0.057911  0.133761  0.036194      2.000000
  0.086871  0.150480  0.036196      2.000000
 -0.086888  0.050165  0.036184      2.000000
 -0.057928  0.066884  0.036186      2.000000
 -0.028968  0.083603  0.036188      2.000000
 -0.000006 -0.100311  0.036223      2.000000
  0.028954 -0.083592  0.036225      2.000000
  0.057914 -0.066873  0.036227      2.000000
  0.086874 -0.050154  0.036229      2.000000
 -0.086885 -0.150468  0.036217      2.000000
 -0.057925 -0.133749  0.036219      2.000000
 -0.028966 -0.117030  0.036221      2.000000
 -0.000006 -0.066872  0.036218      2.000000
  0.028954 -0.050153  0.036219      2.000000
  0.057914 -0.033434  0.036221      2.000000
  0.086874 -0.016715  0.036223      2.000000
 -0.086886 -0.117029  0.036212      2.000000
 -0.057926 -0.100310  0.036214      2.000000
 -0.028966 -0.083591  0.036216      2.000000
 -0.000007 -0.033433  0.036212      2.000000
  0.028953 -0.016714  0.036214      2.000000
  0.057913  0.000005  0.036216      2.000000
  0.086873  0.016724  0.036218      2.000000
 -0.086886 -0.083591  0.036206      2.000000
 -0.057926 -0.066871  0.036208      2.000000
 -0.028967 -0.050152  0.036210      2.000000
 -0.000014  0.000011  0.072413      2.000000
  0.028946  0.016731  0.072415      2.000000
  0.057906  0.033450  0.072417      2.000000
  0.086865  0.050169  0.072419      2.000000
 -0.086894 -0.050146  0.072407      2.000000
 -0.057934 -0.033427  0.072409      2.000000
 -0.028974 -0.016708  0.072411      2.000000
 -0.000015  0.033450  0.072408      2.000000
  0.028945  0.050169  0.072410      2.000000
  0.057905  0.066889  0.072412      2.000000
  0.086865  0.083608  0.072413      2.000000
 -0.086894 -0.016707  0.072402      2.000000
 -0.057934  0.000012  0.072404      2.000000
 -0.028975  0.016731  0.072406      2.000000
 -0.000015  0.066889  0.072402      2.000000
  0.028945  0.083608  0.072404      2.000000
  0.057905  0.100327  0.072406      2.000000
  0.086865  0.117047  0.072408      2.000000
 -0.086895  0.016732  0.072396      2.000000
 -0.057935  0.033451  0.072398      2.000000
 -0.028975  0.050170  0.072400      2.000000
 -0.000016  0.100328  0.072397      2.000000
  0.028944  0.117047  0.072399      2.000000
  0.057904  0.133766  0.072401      2.000000
  0.086864  0.150485  0.072403      2.000000
 -0.086895  0.050171  0.072391      2.000000
 -0.057935  0.066890  0.072393      2.000000
 -0.028975  0.083609  0.072395      2.000000
 -0.000013 -0.100305  0.072430      2.000000
  0.028947 -0.083586  0.072432      2.000000
  0.057907 -0.066867  0.072433      2.000000
  0.086867 -0.050148  0.072435      2.000000
 -0.086892 -0.150463  0.072424      2.000000
 -0.057933 -0.133744  0.072426      2.000000
 -0.028973 -0.117024  0.072428      2.000000
 -0.000013 -0.066866  0.072424      2.000000
  0.028947 -0.050147  0.072426      2.000000
  0.057907 -0.033428  0.072428      2.000000
  0.086866 -0.016709  0.072430      2.000000
 -0.086893 -0.117024  0.072418      2.000000
 -0.057933 -0.100305  0.072420      2.000000
 -0.028973 -0.083586  0.072422      2.000000
 -0.000014 -0.033427  0.072419      2.000000
  0.028946 -0.016708  0.072421      2.000000
  0.057906  0.000011  0.072422      2.000000
  0.086866  0.016730  0.072424      2.000000
 -0.086893 -0.083585  0.072413      2.000000
 -0.057933 -0.066866  0.072415      2.000000
 -0.028974 -0.050147  0.072417      2.000000
 -0.000021  0.000017  0.108620      2.000000
  0.028939  0.016736  0.108622      2.000000
  0.057898  0.033455  0.108624      2.000000
  0.086858  0.050174  0.108626      2.000000
 -0.086901 -0.050140  0.108614      2.000000
 -0.057941 -0.033421  0.108616      2.000000
 -0.028981 -0.016702  0.108618      2.000000
 -0.000022  0.033456  0.108614      2.000000
  0.028938  0.050175  0.108616      2.000000
  0.057898  0.066894  0.108618      2.000000
  0.086858  0.083613  0.108620      2.000000
 -0.086901 -0.016701  0.108608      2.000000
 -0.057942  0.000018  0.108610      2.000000
 -0.028982  0.016737  0.108612      2.000000
 -0.000022  0.066895  0.108609      2.000000
  0.028938  0.083614  0.108611      2.000000
  0.057898  0.100333  0.108613      2.000000
  0.086857  0.117052  0.108615      2.000000
 -0.086902  0.016738  0.108603      2.000000
 -0.057942  0.033457  0.108605      2.000000
 -0.028982  0.050176  0.108607      2.000000
 -0.000023  0.100334  0.108603      2.000000
  0.028937  0.117053  0.108605      2.000000
  0.057897  0.133772  0.108607      2.000000
  0.086857  0.150491  0.108609      2.000000
 -0.086902  0.050177  0.108598      2.000000
 -0.057942  0.066896  0.108599      2.000000
 -0.028983  0.083615  0.108601      2.000000
 -0.000020 -0.100300  0.108636      2.000000
  0.028940 -0.083581  0.108638      2.000000
  0.057900 -0.066861  0.108640      2.000000
  0.086860 -0.050142  0.108642      2.000000
 -0.086900 -0.150457  0.108630      2.000000
 -0.057940 -0.133738  0.108632      2.000000
 -0.028980 -0.117019  0.108634      2.000000
 -0.000020 -0.066861  0.108631      2.000000
  0.028940 -0.050142  0.108633      2.000000
  0.057899 -0.033422  0.108635      2.000000
  0.086859 -0.016703  0.108636      2.000000
 -0.086900 -0.117018  0.108625      2.000000
 -0.057940 -0.100299  0.108627      2.000000
 -0.028980 -0.083580  0.108629      2.000000
 -0.000021 -0.033422  0.108625      2.000000
  0.028939 -0.016703  0.108627      2.000000
  0.057899  0.000016  0.108629      2.000000
  0.086859  0.016736  0.108631      2.000000
 -0.086900 -0.083579  0.108619      2.000000
 -0.057941 -0.066860  0.108621      2.000000
 -0.028981 -0.050141  0.108623      2.000000
 
 
 Subroutine IBZKPT_HF returns following result:
 ==============================================
 
 Found    343 k-points in 1st BZ
 the following    343 k-points will be used (e.g. in the exchange kernel)
 Following reciprocal coordinates:   # in IRBZ
  0.000000  0.000000  0.000000    0.00291545   1 t-inv F
  0.142857 -0.000000 -0.000000    0.00291545   2 t-inv F
  0.285714 -0.000000 -0.000000    0.00291545   3 t-inv F
  0.428571 -0.000000  0.000000    0.00291545   4 t-inv F
  0.000000  0.142857  0.000000    0.00291545   5 t-inv F
  0.142857  0.142857 -0.000000    0.00291545   6 t-inv F
  0.285714  0.142857 -0.000000    0.00291545   7 t-inv F
  0.428571  0.142857 -0.000000    0.00291545   8 t-inv F
 -0.428571  0.142857 -0.000000    0.00291545   9 t-inv F
 -0.285714  0.142857  0.000000    0.00291545  10 t-inv F
 -0.142857  0.142857  0.000000    0.00291545  11 t-inv F
  0.000000  0.285714  0.000000    0.00291545  12 t-inv F
  0.142857  0.285714 -0.000000    0.00291545  13 t-inv F
  0.285714  0.285714  0.000000    0.00291545  14 t-inv F
  0.428571  0.285714 -0.000000    0.00291545  15 t-inv F
 -0.428571  0.285714  0.000000    0.00291545  16 t-inv F
 -0.285714  0.285714  0.000000    0.00291545  17 t-inv F
 -0.142857  0.285714 -0.000000    0.00291545  18 t-inv F
  0.000000  0.428571 -0.000000    0.00291545  19 t-inv F
  0.142857  0.428571 -0.000000    0.00291545  20 t-inv F
  0.285714  0.428571 -0.000000    0.00291545  21 t-inv F
  0.428571  0.428571 -0.000000    0.00291545  22 t-inv F
 -0.428571  0.428571  0.000000    0.00291545  23 t-inv F
 -0.285714  0.428571 -0.000000    0.00291545  24 t-inv F
 -0.142857  0.428571 -0.000000    0.00291545  25 t-inv F
 -0.000000  0.000000  0.142857    0.00291545  26 t-inv F
  0.142857  0.000000  0.142857    0.00291545  27 t-inv F
  0.285714 -0.000000  0.142857    0.00291545  28 t-inv F
  0.428571  0.000000  0.142857    0.00291545  29 t-inv F
 -0.428571 -0.000000  0.142857    0.00291545  30 t-inv F
 -0.285714 -0.000000  0.142857    0.00291545  31 t-inv F
 -0.142857  0.000000  0.142857    0.00291545  32 t-inv F
 -0.000000  0.142857  0.142857    0.00291545  33 t-inv F
  0.142857  0.142857  0.142857    0.00291545  34 t-inv F
  0.285714  0.142857  0.142857    0.00291545  35 t-inv F
  0.428571  0.142857  0.142857    0.00291545  36 t-inv F
 -0.428571  0.142857  0.142857    0.00291545  37 t-inv F
 -0.285714  0.142857  0.142857    0.00291545  38 t-inv F
 -0.142857  0.142857  0.142857    0.00291545  39 t-inv F
 -0.000000  0.285714  0.142857    0.00291545  40 t-inv F
  0.142857  0.285714  0.142857    0.00291545  41 t-inv F
  0.285714  0.285714  0.142857    0.00291545  42 t-inv F
  0.428571  0.285714  0.142857    0.00291545  43 t-inv F
 -0.428571  0.285714  0.142857    0.00291545  44 t-inv F
 -0.285714  0.285714  0.142857    0.00291545  45 t-inv F
 -0.142857  0.285714  0.142857    0.00291545  46 t-inv F
 -0.000000  0.428571  0.142857    0.00291545  47 t-inv F
  0.142857  0.428571  0.142857    0.00291545  48 t-inv F
  0.285714  0.428571  0.142857    0.00291545  49 t-inv F
  0.428571  0.428571  0.142857    0.00291545  50 t-inv F
 -0.428571  0.428571  0.142857    0.00291545  51 t-inv F
 -0.285714  0.428571  0.142857    0.00291545  52 t-inv F
 -0.142857  0.428571  0.142857    0.00291545  53 t-inv F
 -0.000000 -0.428571  0.142857    0.00291545  54 t-inv F
  0.142857 -0.428571  0.142857    0.00291545  55 t-inv F
  0.285714 -0.428571  0.142857    0.00291545  56 t-inv F
  0.428571 -0.428571  0.142857    0.00291545  57 t-inv F
 -0.428571 -0.428571  0.142857    0.00291545  58 t-inv F
 -0.285714 -0.428571  0.142857    0.00291545  59 t-inv F
 -0.142857 -0.428571  0.142857    0.00291545  60 t-inv F
 -0.000000 -0.285714  0.142857    0.00291545  61 t-inv F
  0.142857 -0.285714  0.142857    0.00291545  62 t-inv F
  0.285714 -0.285714  0.142857    0.00291545  63 t-inv F
  0.428571 -0.285714  0.142857    0.00291545  64 t-inv F
 -0.428571 -0.285714  0.142857    0.00291545  65 t-inv F
 -0.285714 -0.285714  0.142857    0.00291545  66 t-inv F
 -0.142857 -0.285714  0.142857    0.00291545  67 t-inv F
 -0.000000 -0.142857  0.142857    0.00291545  68 t-inv F
  0.142857 -0.142857  0.142857    0.00291545  69 t-inv F
  0.285714 -0.142857  0.142857    0.00291545  70 t-inv F
  0.428571 -0.142857  0.142857    0.00291545  71 t-inv F
 -0.428571 -0.142857  0.142857    0.00291545  72 t-inv F
 -0.285714 -0.142857  0.142857    0.00291545  73 t-inv F
 -0.142857 -0.142857  0.142857    0.00291545  74 t-inv F
 -0.000000 -0.000000  0.285714    0.00291545  75 t-inv F
  0.142857 -0.000000  0.285714    0.00291545  76 t-inv F
  0.285714  0.000000  0.285714    0.00291545  77 t-inv F
  0.428571  0.000000  0.285714    0.00291545  78 t-inv F
 -0.428571 -0.000000  0.285714    0.00291545  79 t-inv F
 -0.285714  0.000000  0.285714    0.00291545  80 t-inv F
 -0.142857  0.000000  0.285714    0.00291545  81 t-inv F
 -0.000000  0.142857  0.285714    0.00291545  82 t-inv F
  0.142857  0.142857  0.285714    0.00291545  83 t-inv F
  0.285714  0.142857  0.285714    0.00291545  84 t-inv F
  0.428571  0.142857  0.285714    0.00291545  85 t-inv F
 -0.428571  0.142857  0.285714    0.00291545  86 t-inv F
 -0.285714  0.142857  0.285714    0.00291545  87 t-inv F
 -0.142857  0.142857  0.285714    0.00291545  88 t-inv F
  0.000000  0.285714  0.285714    0.00291545  89 t-inv F
  0.142857  0.285714  0.285714    0.00291545  90 t-inv F
  0.285714  0.285714  0.285714    0.00291545  91 t-inv F
  0.428571  0.285714  0.285714    0.00291545  92 t-inv F
 -0.428571  0.285714  0.285714    0.00291545  93 t-inv F
 -0.285714  0.285714  0.285714    0.00291545  94 t-inv F
 -0.142857  0.285714  0.285714    0.00291545  95 t-inv F
 -0.000000  0.428571  0.285714    0.00291545  96 t-inv F
  0.142857  0.428571  0.285714    0.00291545  97 t-inv F
  0.285714  0.428571  0.285714    0.00291545  98 t-inv F
  0.428571  0.428571  0.285714    0.00291545  99 t-inv F
 -0.428571  0.428571  0.285714    0.00291545 100 t-inv F
 -0.285714  0.428571  0.285714    0.00291545 101 t-inv F
 -0.142857  0.428571  0.285714    0.00291545 102 t-inv F
 -0.000000 -0.428571  0.285714    0.00291545 103 t-inv F
  0.142857 -0.428571  0.285714    0.00291545 104 t-inv F
  0.285714 -0.428571  0.285714    0.00291545 105 t-inv F
  0.428571 -0.428571  0.285714    0.00291545 106 t-inv F
 -0.428571 -0.428571  0.285714    0.00291545 107 t-inv F
 -0.285714 -0.428571  0.285714    0.00291545 108 t-inv F
 -0.142857 -0.428571  0.285714    0.00291545 109 t-inv F
 -0.000000 -0.285714  0.285714    0.00291545 110 t-inv F
  0.142857 -0.285714  0.285714    0.00291545 111 t-inv F
  0.285714 -0.285714  0.285714    0.00291545 112 t-inv F
  0.428571 -0.285714  0.285714    0.00291545 113 t-inv F
 -0.428571 -0.285714  0.285714    0.00291545 114 t-inv F
 -0.285714 -0.285714  0.285714    0.00291545 115 t-inv F
 -0.142857 -0.285714  0.285714    0.00291545 116 t-inv F
 -0.000000 -0.142857  0.285714    0.00291545 117 t-inv F
  0.142857 -0.142857  0.285714    0.00291545 118 t-inv F
  0.285714 -0.142857  0.285714    0.00291545 119 t-inv F
  0.428571 -0.142857  0.285714    0.00291545 120 t-inv F
 -0.428571 -0.142857  0.285714    0.00291545 121 t-inv F
 -0.285714 -0.142857  0.285714    0.00291545 122 t-inv F
 -0.142857 -0.142857  0.285714    0.00291545 123 t-inv F
 -0.000000  0.000000  0.428571    0.00291545 124 t-inv F
  0.142857 -0.000000  0.428571    0.00291545 125 t-inv F
  0.285714 -0.000000  0.428571    0.00291545 126 t-inv F
  0.428571 -0.000000  0.428571    0.00291545 127 t-inv F
 -0.428571 -0.000000  0.428571    0.00291545 128 t-inv F
 -0.285714 -0.000000  0.428571    0.00291545 129 t-inv F
 -0.142857 -0.000000  0.428571    0.00291545 130 t-inv F
 -0.000000  0.142857  0.428571    0.00291545 131 t-inv F
  0.142857  0.142857  0.428571    0.00291545 132 t-inv F
  0.285714  0.142857  0.428571    0.00291545 133 t-inv F
  0.428571  0.142857  0.428571    0.00291545 134 t-inv F
 -0.428571  0.142857  0.428571    0.00291545 135 t-inv F
 -0.285714  0.142857  0.428571    0.00291545 136 t-inv F
 -0.142857  0.142857  0.428571    0.00291545 137 t-inv F
  0.000000  0.285714  0.428571    0.00291545 138 t-inv F
  0.142857  0.285714  0.428571    0.00291545 139 t-inv F
  0.285714  0.285714  0.428571    0.00291545 140 t-inv F
  0.428571  0.285714  0.428571    0.00291545 141 t-inv F
 -0.428571  0.285714  0.428571    0.00291545 142 t-inv F
 -0.285714  0.285714  0.428571    0.00291545 143 t-inv F
 -0.142857  0.285714  0.428571    0.00291545 144 t-inv F
 -0.000000  0.428571  0.428571    0.00291545 145 t-inv F
  0.142857  0.428571  0.428571    0.00291545 146 t-inv F
  0.285714  0.428571  0.428571    0.00291545 147 t-inv F
  0.428571  0.428571  0.428571    0.00291545 148 t-inv F
 -0.428571  0.428571  0.428571    0.00291545 149 t-inv F
 -0.285714  0.428571  0.428571    0.00291545 150 t-inv F
 -0.142857  0.428571  0.428571    0.00291545 151 t-inv F
 -0.000000 -0.428571  0.428571    0.00291545 152 t-inv F
  0.142857 -0.428571  0.428571    0.00291545 153 t-inv F
  0.285714 -0.428571  0.428571    0.00291545 154 t-inv F
  0.428571 -0.428571  0.428571    0.00291545 155 t-inv F
 -0.428571 -0.428571  0.428571    0.00291545 156 t-inv F
 -0.285714 -0.428571  0.428571    0.00291545 157 t-inv F
 -0.142857 -0.428571  0.428571    0.00291545 158 t-inv F
 -0.000000 -0.285714  0.428571    0.00291545 159 t-inv F
  0.142857 -0.285714  0.428571    0.00291545 160 t-inv F
  0.285714 -0.285714  0.428571    0.00291545 161 t-inv F
  0.428571 -0.285714  0.428571    0.00291545 162 t-inv F
 -0.428571 -0.285714  0.428571    0.00291545 163 t-inv F
 -0.285714 -0.285714  0.428571    0.00291545 164 t-inv F
 -0.142857 -0.285714  0.428571    0.00291545 165 t-inv F
  0.000000 -0.142857  0.428571    0.00291545 166 t-inv F
  0.142857 -0.142857  0.428571    0.00291545 167 t-inv F
  0.285714 -0.142857  0.428571    0.00291545 168 t-inv F
  0.428571 -0.142857  0.428571    0.00291545 169 t-inv F
 -0.428571 -0.142857  0.428571    0.00291545 170 t-inv F
 -0.285714 -0.142857  0.428571    0.00291545 171 t-inv F
 -0.142857 -0.142857  0.428571    0.00291545 172 t-inv F
 -0.142857  0.000000  0.000000    0.00291545   2 t-inv F
 -0.285714  0.000000  0.000000    0.00291545   3 t-inv F
 -0.428571  0.000000 -0.000000    0.00291545   4 t-inv F
 -0.000000 -0.142857 -0.000000    0.00291545   5 t-inv F
 -0.142857 -0.142857  0.000000    0.00291545   6 t-inv F
 -0.285714 -0.142857  0.000000    0.00291545   7 t-inv F
 -0.428571 -0.142857  0.000000    0.00291545   8 t-inv F
  0.428571 -0.142857  0.000000    0.00291545   9 t-inv F
  0.285714 -0.142857 -0.000000    0.00291545  10 t-inv F
  0.142857 -0.142857 -0.000000    0.00291545  11 t-inv F
 -0.000000 -0.285714 -0.000000    0.00291545  12 t-inv F
 -0.142857 -0.285714  0.000000    0.00291545  13 t-inv F
 -0.285714 -0.285714 -0.000000    0.00291545  14 t-inv F
 -0.428571 -0.285714  0.000000    0.00291545  15 t-inv F
  0.428571 -0.285714 -0.000000    0.00291545  16 t-inv F
  0.285714 -0.285714 -0.000000    0.00291545  17 t-inv F
  0.142857 -0.285714  0.000000    0.00291545  18 t-inv F
 -0.000000 -0.428571  0.000000    0.00291545  19 t-inv F
 -0.142857 -0.428571  0.000000    0.00291545  20 t-inv F
 -0.285714 -0.428571  0.000000    0.00291545  21 t-inv F
 -0.428571 -0.428571  0.000000    0.00291545  22 t-inv F
  0.428571 -0.428571 -0.000000    0.00291545  23 t-inv F
  0.285714 -0.428571  0.000000    0.00291545  24 t-inv F
  0.142857 -0.428571  0.000000    0.00291545  25 t-inv F
  0.000000 -0.000000 -0.142857    0.00291545  26 t-inv F
 -0.142857 -0.000000 -0.142857    0.00291545  27 t-inv F
 -0.285714  0.000000 -0.142857    0.00291545  28 t-inv F
 -0.428571 -0.000000 -0.142857    0.00291545  29 t-inv F
  0.428571  0.000000 -0.142857    0.00291545  30 t-inv F
  0.285714  0.000000 -0.142857    0.00291545  31 t-inv F
  0.142857 -0.000000 -0.142857    0.00291545  32 t-inv F
  0.000000 -0.142857 -0.142857    0.00291545  33 t-inv F
 -0.142857 -0.142857 -0.142857    0.00291545  34 t-inv F
 -0.285714 -0.142857 -0.142857    0.00291545  35 t-inv F
 -0.428571 -0.142857 -0.142857    0.00291545  36 t-inv F
  0.428571 -0.142857 -0.142857    0.00291545  37 t-inv F
  0.285714 -0.142857 -0.142857    0.00291545  38 t-inv F
  0.142857 -0.142857 -0.142857    0.00291545  39 t-inv F
  0.000000 -0.285714 -0.142857    0.00291545  40 t-inv F
 -0.142857 -0.285714 -0.142857    0.00291545  41 t-inv F
 -0.285714 -0.285714 -0.142857    0.00291545  42 t-inv F
 -0.428571 -0.285714 -0.142857    0.00291545  43 t-inv F
  0.428571 -0.285714 -0.142857    0.00291545  44 t-inv F
  0.285714 -0.285714 -0.142857    0.00291545  45 t-inv F
  0.142857 -0.285714 -0.142857    0.00291545  46 t-inv F
  0.000000 -0.428571 -0.142857    0.00291545  47 t-inv F
 -0.142857 -0.428571 -0.142857    0.00291545  48 t-inv F
 -0.285714 -0.428571 -0.142857    0.00291545  49 t-inv F
 -0.428571 -0.428571 -0.142857    0.00291545  50 t-inv F
  0.428571 -0.428571 -0.142857    0.00291545  51 t-inv F
  0.285714 -0.428571 -0.142857    0.00291545  52 t-inv F
  0.142857 -0.428571 -0.142857    0.00291545  53 t-inv F
  0.000000  0.428571 -0.142857    0.00291545  54 t-inv F
 -0.142857  0.428571 -0.142857    0.00291545  55 t-inv F
 -0.285714  0.428571 -0.142857    0.00291545  56 t-inv F
 -0.428571  0.428571 -0.142857    0.00291545  57 t-inv F
  0.428571  0.428571 -0.142857    0.00291545  58 t-inv F
  0.285714  0.428571 -0.142857    0.00291545  59 t-inv F
  0.142857  0.428571 -0.142857    0.00291545  60 t-inv F
  0.000000  0.285714 -0.142857    0.00291545  61 t-inv F
 -0.142857  0.285714 -0.142857    0.00291545  62 t-inv F
 -0.285714  0.285714 -0.142857    0.00291545  63 t-inv F
 -0.428571  0.285714 -0.142857    0.00291545  64 t-inv F
  0.428571  0.285714 -0.142857    0.00291545  65 t-inv F
  0.285714  0.285714 -0.142857    0.00291545  66 t-inv F
  0.142857  0.285714 -0.142857    0.00291545  67 t-inv F
  0.000000  0.142857 -0.142857    0.00291545  68 t-inv F
 -0.142857  0.142857 -0.142857    0.00291545  69 t-inv F
 -0.285714  0.142857 -0.142857    0.00291545  70 t-inv F
 -0.428571  0.142857 -0.142857    0.00291545  71 t-inv F
  0.428571  0.142857 -0.142857    0.00291545  72 t-inv F
  0.285714  0.142857 -0.142857    0.00291545  73 t-inv F
  0.142857  0.142857 -0.142857    0.00291545  74 t-inv F
  0.000000  0.000000 -0.285714    0.00291545  75 t-inv F
 -0.142857  0.000000 -0.285714    0.00291545  76 t-inv F
 -0.285714 -0.000000 -0.285714    0.00291545  77 t-inv F
 -0.428571 -0.000000 -0.285714    0.00291545  78 t-inv F
  0.428571  0.000000 -0.285714    0.00291545  79 t-inv F
  0.285714 -0.000000 -0.285714    0.00291545  80 t-inv F
  0.142857 -0.000000 -0.285714    0.00291545  81 t-inv F
  0.000000 -0.142857 -0.285714    0.00291545  82 t-inv F
 -0.142857 -0.142857 -0.285714    0.00291545  83 t-inv F
 -0.285714 -0.142857 -0.285714    0.00291545  84 t-inv F
 -0.428571 -0.142857 -0.285714    0.00291545  85 t-inv F
  0.428571 -0.142857 -0.285714    0.00291545  86 t-inv F
  0.285714 -0.142857 -0.285714    0.00291545  87 t-inv F
  0.142857 -0.142857 -0.285714    0.00291545  88 t-inv F
 -0.000000 -0.285714 -0.285714    0.00291545  89 t-inv F
 -0.142857 -0.285714 -0.285714    0.00291545  90 t-inv F
 -0.285714 -0.285714 -0.285714    0.00291545  91 t-inv F
 -0.428571 -0.285714 -0.285714    0.00291545  92 t-inv F
  0.428571 -0.285714 -0.285714    0.00291545  93 t-inv F
  0.285714 -0.285714 -0.285714    0.00291545  94 t-inv F
  0.142857 -0.285714 -0.285714    0.00291545  95 t-inv F
  0.000000 -0.428571 -0.285714    0.00291545  96 t-inv F
 -0.142857 -0.428571 -0.285714    0.00291545  97 t-inv F
 -0.285714 -0.428571 -0.285714    0.00291545  98 t-inv F
 -0.428571 -0.428571 -0.285714    0.00291545  99 t-inv F
  0.428571 -0.428571 -0.285714    0.00291545 100 t-inv F
  0.285714 -0.428571 -0.285714    0.00291545 101 t-inv F
  0.142857 -0.428571 -0.285714    0.00291545 102 t-inv F
  0.000000  0.428571 -0.285714    0.00291545 103 t-inv F
 -0.142857  0.428571 -0.285714    0.00291545 104 t-inv F
 -0.285714  0.428571 -0.285714    0.00291545 105 t-inv F
 -0.428571  0.428571 -0.285714    0.00291545 106 t-inv F
  0.428571  0.428571 -0.285714    0.00291545 107 t-inv F
  0.285714  0.428571 -0.285714    0.00291545 108 t-inv F
  0.142857  0.428571 -0.285714    0.00291545 109 t-inv F
  0.000000  0.285714 -0.285714    0.00291545 110 t-inv F
 -0.142857  0.285714 -0.285714    0.00291545 111 t-inv F
 -0.285714  0.285714 -0.285714    0.00291545 112 t-inv F
 -0.428571  0.285714 -0.285714    0.00291545 113 t-inv F
  0.428571  0.285714 -0.285714    0.00291545 114 t-inv F
  0.285714  0.285714 -0.285714    0.00291545 115 t-inv F
  0.142857  0.285714 -0.285714    0.00291545 116 t-inv F
  0.000000  0.142857 -0.285714    0.00291545 117 t-inv F
 -0.142857  0.142857 -0.285714    0.00291545 118 t-inv F
 -0.285714  0.142857 -0.285714    0.00291545 119 t-inv F
 -0.428571  0.142857 -0.285714    0.00291545 120 t-inv F
  0.428571  0.142857 -0.285714    0.00291545 121 t-inv F
  0.285714  0.142857 -0.285714    0.00291545 122 t-inv F
  0.142857  0.142857 -0.285714    0.00291545 123 t-inv F
  0.000000 -0.000000 -0.428571    0.00291545 124 t-inv F
 -0.142857  0.000000 -0.428571    0.00291545 125 t-inv F
 -0.285714  0.000000 -0.428571    0.00291545 126 t-inv F
 -0.428571  0.000000 -0.428571    0.00291545 127 t-inv F
  0.428571  0.000000 -0.428571    0.00291545 128 t-inv F
  0.285714  0.000000 -0.428571    0.00291545 129 t-inv F
  0.142857  0.000000 -0.428571    0.00291545 130 t-inv F
  0.000000 -0.142857 -0.428571    0.00291545 131 t-inv F
 -0.142857 -0.142857 -0.428571    0.00291545 132 t-inv F
 -0.285714 -0.142857 -0.428571    0.00291545 133 t-inv F
 -0.428571 -0.142857 -0.428571    0.00291545 134 t-inv F
  0.428571 -0.142857 -0.428571    0.00291545 135 t-inv F
  0.285714 -0.142857 -0.428571    0.00291545 136 t-inv F
  0.142857 -0.142857 -0.428571    0.00291545 137 t-inv F
 -0.000000 -0.285714 -0.428571    0.00291545 138 t-inv F
 -0.142857 -0.285714 -0.428571    0.00291545 139 t-inv F
 -0.285714 -0.285714 -0.428571    0.00291545 140 t-inv F
 -0.428571 -0.285714 -0.428571    0.00291545 141 t-inv F
  0.428571 -0.285714 -0.428571    0.00291545 142 t-inv F
  0.285714 -0.285714 -0.428571    0.00291545 143 t-inv F
  0.142857 -0.285714 -0.428571    0.00291545 144 t-inv F
  0.000000 -0.428571 -0.428571    0.00291545 145 t-inv F
 -0.142857 -0.428571 -0.428571    0.00291545 146 t-inv F
 -0.285714 -0.428571 -0.428571    0.00291545 147 t-inv F
 -0.428571 -0.428571 -0.428571    0.00291545 148 t-inv F
  0.428571 -0.428571 -0.428571    0.00291545 149 t-inv F
  0.285714 -0.428571 -0.428571    0.00291545 150 t-inv F
  0.142857 -0.428571 -0.428571    0.00291545 151 t-inv F
  0.000000  0.428571 -0.428571    0.00291545 152 t-inv F
 -0.142857  0.428571 -0.428571    0.00291545 153 t-inv F
 -0.285714  0.428571 -0.428571    0.00291545 154 t-inv F
 -0.428571  0.428571 -0.428571    0.00291545 155 t-inv F
  0.428571  0.428571 -0.428571    0.00291545 156 t-inv F
  0.285714  0.428571 -0.428571    0.00291545 157 t-inv F
  0.142857  0.428571 -0.428571    0.00291545 158 t-inv F
  0.000000  0.285714 -0.428571    0.00291545 159 t-inv F
 -0.142857  0.285714 -0.428571    0.00291545 160 t-inv F
 -0.285714  0.285714 -0.428571    0.00291545 161 t-inv F
 -0.428571  0.285714 -0.428571    0.00291545 162 t-inv F
  0.428571  0.285714 -0.428571    0.00291545 163 t-inv F
  0.285714  0.285714 -0.428571    0.00291545 164 t-inv F
  0.142857  0.285714 -0.428571    0.00291545 165 t-inv F
 -0.000000  0.142857 -0.428571    0.00291545 166 t-inv F
 -0.142857  0.142857 -0.428571    0.00291545 167 t-inv F
 -0.285714  0.142857 -0.428571    0.00291545 168 t-inv F
 -0.428571  0.142857 -0.428571    0.00291545 169 t-inv F
  0.428571  0.142857 -0.428571    0.00291545 170 t-inv F
  0.285714  0.142857 -0.428571    0.00291545 171 t-inv F
  0.142857  0.142857 -0.428571    0.00291545 172 t-inv F


--------------------------------------------------------------------------------------------------------




 Dimension of arrays:
   k-points           NKPTS =    172   k-points in BZ     NKDIM =    343   number of bands    NBANDS=     56
   number of dos      NEDOS =    301   number of ions     NIONS =      9
   non local maximal  LDIM  =      6   non local SUM 2l+1 LMDIM =     18
   total plane-waves  NPLWV =  18816
   max r-space proj   IRMAX =   2378   max aug-charges    IRDMAX=   7065
   dimension x,y,z NGX =    28 NGY =   28 NGZ =   24
   dimension x,y,z NGXF=    56 NGYF=   56 NGZF=   48
   support grid    NGXF=    56 NGYF=   56 NGZF=   48
   ions per type =               1   2   6
   NGX,Y,Z   is equivalent  to a cutoff of   9.44,  9.44, 10.11 a.u.
   NGXF,Y,Z  is equivalent  to a cutoff of  18.87, 18.87, 20.22 a.u.

 SYSTEM =  unknown system                          
 POSCAR =  Li1 Mn2 O6                              

 Startparameter for this run:
   NWRITE =      2    write-flag & timer
   PREC   = normal    normal or accurate (medium, high low for compatibility)
   ISTART =      0    job   : 0-new  1-cont  2-samecut
   ICHARG =      2    charge: 1-file 2-atom 10-const
   ISPIN  =      2    spin polarized calculation?
   LNONCOLLINEAR =      F non collinear calculations
   LSORBIT =      F    spin-orbit coupling
   INIWAV =      1    electr: 0-lowe 1-rand  2-diag
   LASPH  =      T    aspherical Exc in radial PAW
   METAGGA=      F    non-selfconsistent MetaGGA calc.

 Electronic Relaxation 1
   ENCUT  =  500.0 eV  36.75 Ry    6.06 a.u.   8.99  8.99  7.19*2*pi/ulx,y,z
   ENINI  =  500.0     initial cutoff
   ENAUG  =  628.9 eV  augmentation charge cutoff
   NELM   =    100;   NELMIN=  5; NELMDL=  0     # of ELM steps 
   EDIFF  = 0.1E-05   stopping-criterion for ELM
   LREAL  =      T    real-space projection
   NLSPLINE    = F    spline interpolate recip. space projectors
   LCOMPAT=      F    compatible to vasp.4.4
   GGA_COMPAT  = T    GGA compatible to vasp.4.4-vasp.4.6
   LMAXPAW     = -100 max onsite density
   LMAXMIX     =    2 max onsite mixed and CHGCAR
   VOSKOWN=      0    Vosko Wilk Nusair interpolation
   ROPT   =   -0.00050  -0.00050  -0.00050
 Ionic relaxation
   EDIFFG = 0.1E-02   stopping-criterion for IOM
   NSW    =    300    number of steps for IOM
   NBLOCK =      1;   KBLOCK =    300    inner block; outer block 
   IBRION =      1    ionic relax: 0-MD 1-quasi-New 2-CG
   NFREE  =      0    steps in history (QN), initial steepest desc. (CG)
   ISIF   =      3    stress and relaxation
   IWAVPR =     11    prediction:  0-non 1-charg 2-wave 3-comb
   ISYM   =      3    0-nonsym 1-usesym 2-fastsym
   LCORR  =      T    Harris-Foulkes like correction to forces

   POTIM  = 0.5000    time-step for ionic-motion
   TEIN   =    0.0    initial temperature
   TEBEG  =    0.0;   TEEND  =   0.0 temperature during run
   SMASS  =  -3.00    Nose mass-parameter (am)
   estimated Nose-frequenzy (Omega)   =  0.10E-29 period in steps =****** mass=  -0.556E-27a.u.
   SCALEE = 1.0000    scale energy and forces
   NPACO  =    256;   APACO  = 16.0  distance and # of slots for P.C.
   PSTRESS=    0.0 pullay stress

  Mass of Ions in am
   POMASS =   7.01 54.94 16.00
  Ionic Valenz
   ZVAL   =   3.00 13.00  6.00
  Atomic Wigner-Seitz radii
   RWIGS  =  -1.00 -1.00 -1.00
  virtual crystal weights 
   VCA    =   1.00  1.00  1.00
   NELECT =      65.0000    total number of electrons
   NUPDOWN=      -1.0000    fix difference up-down

 DOS related values:
   EMIN   =  10.00;   EMAX   =-10.00  energy-range for DOS
   EFERMI =   0.00
   ISMEAR =     2;   SIGMA  =   0.20  broadening in eV -4-tet -1-fermi 0-gaus

 Electronic relaxation 2 (details)
   IALGO  =     58    algorithm
   LDIAG  =      T    sub-space diagonalisation (order eigenvalues)
   LSUBROT=      F    optimize rotation matrix (better conditioning)
   TURBO    =      0    0=normal 1=particle mesh
   IRESTART =      0    0=no restart 2=restart with 2 vectors
   NREBOOT  =      0    no. of reboots
   NMIN     =      0    reboot dimension
   EREF     =   0.00    reference energy to select bands
   IMIX   =      4    mixing-type and parameters
     AMIX     =   0.40;   BMIX     =  1.00
     AMIX_MAG =   1.60;   BMIX_MAG =  1.00
     AMIN     =   0.10
     WC   =   100.;   INIMIX=   1;  MIXPRE=   1;  MAXMIX= -45

 Intra band minimization:
   WEIMIN = 0.0010     energy-eigenvalue tresh-hold
   EBREAK =  0.45E-08  absolut break condition
   DEPER  =   0.30     relativ break condition  

   TIME   =   0.40     timestep for ELM

  volume/ion in A,a.u.               =       9.24        62.35
  Fermi-wavevector in a.u.,A,eV,Ry     =   1.508079  2.849856 30.943749  2.274301
  Thomas-Fermi vector in A             =   2.618580
 
 Write flags
   LWAVE        =      T    write WAVECAR
   LDOWNSAMPLE  =      F    k-point downsampling of WAVECAR
   LCHARG       =      F    write CHGCAR
   LVTOT        =      F    write LOCPOT, total local potential
   LVHAR        =      F    write LOCPOT, Hartree potential only
   LELF         =      F    write electronic localiz. function (ELF)
   LORBIT       =     11    0 simple, 1 ext, 2 COOP (PROOUT), +10 PAW based schemes


 Dipole corrections
   LMONO  =      F    monopole corrections only (constant potential shift)
   LDIPOL =      F    correct potential (dipole corrections)
   IDIPOL =      0    1-x, 2-y, 3-z, 4-all directions 
   EPSILON=  1.0000000 bulk dielectric constant

 Exchange correlation treatment:
   GGA     =    --    GGA type
   LEXCH   =     8    internal setting for exchange type
   VOSKOWN=      0    Vosko Wilk Nusair interpolation
   EXXOEP  =     0    0=HF, 1=EXX-LHF (local Hartree Fock) 2=EXX OEP
   LHFCALC =     T    Hartree Fock is set to
   LSYMGRAD=     F    symmetrize gradient (conserves proper symmetry)
   PRECFOCK=fast      Normal, Fast or Accurate (Low or Medium for compatibility)
   LRHFCALC=     F    long range Hartree Fock
   LRSCOR  =     F    long range correlation only (use DFT for short range part)
   LTHOMAS =     F    Thomas Fermi screening in HF
   LMODELHF=     F    short range full HF, long range fraction AEXX
   ENCUT4O =  -1.0   cutoff for four orbital integrals eV
   LMAXFOCK=     4    L truncation for augmentation on plane wave grid
   LMAXFOCKAE=  -1    L truncation for all-electron charge restoration on plane wave grid
   NMAXFOCKAE=   1    number of basis functions for all-electron charge restoration
   LFOCKAEDFT=     F  apply the AE augmentation even for DFT
   NKREDX  =     1    reduce k-point grid by
   NKREDY  =     1    reduce k-point grid by
   NKREDZ  =     1    reduce k-point grid by
   SHIFTRED=     F    shift reduced grid of Gamma
   HFKIDENT=     F    idential grid for each k-point
   ODDONLY =     F    use only odd q-grid points
   EVENONLY=     F    use only even q-grid points
   HFALPHA =   -1.0000 decay constant for conv. correction
   MCALPHA =    0.0000 extent of test-charge in conv. correction in multipole expansion
   AEXX    =    0.2500 exact exchange contribution
   HFSCREEN=    0.2000 screening length (either q_TF or 0.3 A-1)
   HFSCREENC=   0.2000 screening length for correlation (either q_TF or 0.3 A-1)
   HFRCUT  =    0.0000 spherical cutoff for potential kernel
   ALDAX   =    0.7500 LDA exchange part
   AGGAX   =    0.7500 GGA exchange part
   ALDAC   =    1.0000 LDA correlation
   AGGAC   =    1.0000 GGA correlation
   ENCUTFOCK=  -1.0 apply spherical cutoff to Coloumb kernel
   NBANDSGWLOW=     1    first orbital included in HF term
   NBLOCK_FOCK=    64    blocking factor in FOCK_ACC
 Linear response parameters
   LEPSILON=     F    determine dielectric tensor
   LRPA    =     F    only Hartree local field effects (RPA)
   LNABLA  =     F    use nabla operator in PAW spheres
   LVEL    =     F    velocity operator in full k-point grid
   LINTERFAST=   F  fast interpolation
   KINTER  =     0    interpolate to denser k-point grid
   CSHIFT  =0.1000    complex shift for real part using Kramers Kronig
   OMEGAMAX=  -1.0    maximum frequency
   DEG_THRESHOLD= 0.2000000E-02 threshold for treating states as degnerate
   RTIME   =   -0.100 relaxation time in fs
  (WPLASMAI=    0.000 imaginary part of plasma frequency in eV, 0.658/RTIME)
   DFIELD  = 0.0000000 0.0000000 0.0000000 field for delta impulse in time
 
 Orbital magnetization related:
   ORBITALMAG=     F  switch on orbital magnetization
   LCHIMAG   =     F  perturbation theory with respect to B field
   DQ        =  0.001000  dq finite difference perturbation B field
   LLRAUG    =     F  two centre corrections for induced B field



--------------------------------------------------------------------------------------------------------


 quasi-Newton-method for relaxation of ions
 charge density and potential will be updated during run
 spin polarized calculation
 Conjugate gradient for all bands (Freysoldt, et al. PRB 79, 241103 (2009))
 preconditioned conjugated gradient                                        
 perform sub-space diagonalisation
    before iterative eigenvector-optimisation
 modified Broyden-mixing scheme, WC =      100.0
 initial mixing is a Kerker type mixing with AMIX =  0.4000 and BMIX =      1.0000
 Hartree-type preconditioning will be used
 using additional bands           23
 real space projection scheme for non local part
 use partial core corrections
 no Harris-corrections to forces 
 use gradient corrections 
 use of overlap-Matrix (Vanderbilt PP)
 Methfessel and Paxton  Order N= 2 SIGMA  =   0.20


--------------------------------------------------------------------------------------------------------


  energy-cutoff  :      500.00
  volume of cell :       83.15
      direct lattice vectors                 reciprocal lattice vectors
     4.932892020  0.000069680  0.000966101     0.202719181  0.117033697  0.000013464
    -2.466393086  4.272147402 -0.001157117    -0.000003299  0.234072406 -0.000038334
    -0.000635102  0.000646167  3.945612454    -0.000049638  0.000039989  0.253446063

  length of vectors
     4.932892116  4.932984859  3.945612558     0.234076810  0.234072409  0.253446071


 
 k-points in units of 2pi/SCALE and weight: pymatgen 4.7.6+ generated KPOINTS with g
   0.00000000  0.00000000  0.00000000       0.003
   0.02895988  0.01671910  0.00000192       0.006
   0.05791977  0.03343820  0.00000385       0.006
   0.08687965  0.05015730  0.00000577       0.006
  -0.00000047  0.03343892 -0.00000548       0.006
   0.02895941  0.05015801 -0.00000355       0.006
   0.05791929  0.06687711 -0.00000163       0.006
   0.08687918  0.08359621  0.00000029       0.006
  -0.08688012 -0.01671838 -0.00001125       0.006
  -0.05792024  0.00000072 -0.00000932       0.006
  -0.02896035  0.01671982 -0.00000740       0.006
  -0.00000094  0.06687783 -0.00001095       0.006
   0.02895894  0.08359693 -0.00000903       0.006
   0.05791882  0.10031603 -0.00000711       0.006
   0.08687871  0.11703513 -0.00000518       0.006
  -0.08688059  0.01672053 -0.00001672       0.006
  -0.05792071  0.03343963 -0.00001480       0.006
  -0.02896083  0.05015873 -0.00001288       0.006
  -0.00000141  0.10031675 -0.00001643       0.006
   0.02895847  0.11703584 -0.00001451       0.006
   0.05791835  0.13375494 -0.00001258       0.006
   0.08687824  0.15047404 -0.00001066       0.006
  -0.08688106  0.05015945 -0.00002220       0.006
  -0.05792118  0.06687855 -0.00002028       0.006
  -0.02896130  0.08359765 -0.00001835       0.006
  -0.00000709  0.00000571  0.03620658       0.006
   0.02895279  0.01672481  0.03620850       0.006
   0.05791268  0.03344391  0.03621043       0.006
   0.08687256  0.05016301  0.03621235       0.006
  -0.08688674 -0.05015159  0.03620081       0.006
  -0.05792686 -0.03343249  0.03620273       0.006
  -0.02896697 -0.01671339  0.03620466       0.006
  -0.00000756  0.03344463  0.03620110       0.006
   0.02895232  0.05016373  0.03620303       0.006
   0.05791220  0.06688283  0.03620495       0.006
   0.08687209  0.08360193  0.03620687       0.006
  -0.08688721 -0.01671267  0.03619533       0.006
  -0.05792733  0.00000643  0.03619726       0.006
  -0.02896745  0.01672553  0.03619918       0.006
  -0.00000803  0.06688354  0.03619563       0.006
   0.02895185  0.08360264  0.03619755       0.006
   0.05791173  0.10032174  0.03619947       0.006
   0.08687162  0.11704084  0.03620140       0.006
  -0.08688768  0.01672624  0.03618986       0.006
  -0.05792780  0.03344534  0.03619178       0.006
  -0.02896792  0.05016444  0.03619370       0.006
  -0.00000850  0.10032246  0.03619015       0.006
   0.02895138  0.11704156  0.03619207       0.006
   0.05791126  0.13376066  0.03619400       0.006
   0.08687114  0.15047976  0.03619592       0.006
  -0.08688815  0.05016516  0.03618438       0.006
  -0.05792827  0.06688426  0.03618630       0.006
  -0.02896839  0.08360336  0.03618823       0.006
  -0.00000568 -0.10031103  0.03622301       0.006
   0.02895421 -0.08359193  0.03622493       0.006
   0.05791409 -0.06687283  0.03622686       0.006
   0.08687397 -0.05015373  0.03622878       0.006
  -0.08688533 -0.15046833  0.03621724       0.006
  -0.05792544 -0.13374923  0.03621916       0.006
  -0.02896556 -0.11703013  0.03622109       0.006
  -0.00000615 -0.06687212  0.03621753       0.006
   0.02895373 -0.05015302  0.03621946       0.006
   0.05791362 -0.03343392  0.03622138       0.006
   0.08687350 -0.01671482  0.03622330       0.006
  -0.08688580 -0.11702942  0.03621176       0.006
  -0.05792591 -0.10031032  0.03621369       0.006
  -0.02896603 -0.08359122  0.03621561       0.006
  -0.00000662 -0.03343320  0.03621206       0.006
   0.02895326 -0.01671410  0.03621398       0.006
   0.05791315  0.00000500  0.03621590       0.006
   0.08687303  0.01672410  0.03621783       0.006
  -0.08688627 -0.08359050  0.03620629       0.006
  -0.05792639 -0.06687140  0.03620821       0.006
  -0.02896650 -0.05015230  0.03621013       0.006
  -0.00001418  0.00001143  0.07241316       0.006
   0.02894570  0.01673053  0.07241508       0.006
   0.05790558  0.03344962  0.07241701       0.006
   0.08686547  0.05016872  0.07241893       0.006
  -0.08689383 -0.05014587  0.07240739       0.006
  -0.05793395 -0.03342677  0.07240931       0.006
  -0.02897407 -0.01670767  0.07241124       0.006
  -0.00001465  0.03345034  0.07240768       0.006
   0.02894523  0.05016944  0.07240961       0.006
   0.05790511  0.06688854  0.07241153       0.006
   0.08686500  0.08360764  0.07241345       0.006
  -0.08689430 -0.01670696  0.07240191       0.006
  -0.05793442  0.00001214  0.07240384       0.006
  -0.02897454  0.01673124  0.07240576       0.006
  -0.00001512  0.06688926  0.07240221       0.006
   0.02894476  0.08360836  0.07240413       0.006
   0.05790464  0.10032745  0.07240606       0.006
   0.08686452  0.11704655  0.07240798       0.006
  -0.08689477  0.01673196  0.07239644       0.006
  -0.05793489  0.03345106  0.07239836       0.006
  -0.02897501  0.05017016  0.07240028       0.006
  -0.00001560  0.10032817  0.07239673       0.006
   0.02894429  0.11704727  0.07239866       0.006
   0.05790417  0.13376637  0.07240058       0.006
   0.08686405  0.15048547  0.07240250       0.006
  -0.08689525  0.05017087  0.07239096       0.006
  -0.05793536  0.06688997  0.07239289       0.006
  -0.02897548  0.08360907  0.07239481       0.006
  -0.00001277 -0.10030532  0.07242959       0.006
   0.02894711 -0.08358622  0.07243151       0.006
   0.05790700 -0.06686712  0.07243344       0.006
   0.08686688 -0.05014802  0.07243536       0.006
  -0.08689242 -0.15046262  0.07242382       0.006
  -0.05793253 -0.13374352  0.07242574       0.006
  -0.02897265 -0.11702442  0.07242767       0.006
  -0.00001324 -0.06686640  0.07242411       0.006
   0.02894664 -0.05014731  0.07242604       0.006
   0.05790653 -0.03342821  0.07242796       0.006
   0.08686641 -0.01670911  0.07242988       0.006
  -0.08689289 -0.11702370  0.07241834       0.006
  -0.05793301 -0.10030460  0.07242027       0.006
  -0.02897312 -0.08358550  0.07242219       0.006
  -0.00001371 -0.03342749  0.07241864       0.006
   0.02894617 -0.01670839  0.07242056       0.006
   0.05790606  0.00001071  0.07242248       0.006
   0.08686594  0.01672981  0.07242441       0.006
  -0.08689336 -0.08358479  0.07241287       0.006
  -0.05793348 -0.06686569  0.07241479       0.006
  -0.02897359 -0.05014659  0.07241671       0.006
  -0.00002127  0.00001714  0.10861974       0.006
   0.02893861  0.01673624  0.10862166       0.006
   0.05789849  0.03345534  0.10862359       0.006
   0.08685838  0.05017444  0.10862551       0.006
  -0.08690092 -0.05014016  0.10861397       0.006
  -0.05794104 -0.03342106  0.10861589       0.006
  -0.02898116 -0.01670196  0.10861782       0.006
  -0.00002174  0.03345605  0.10861426       0.006
   0.02893814  0.05017515  0.10861619       0.006
   0.05789802  0.06689425  0.10861811       0.006
   0.08685790  0.08361335  0.10862004       0.006
  -0.08690139 -0.01670125  0.10860849       0.006
  -0.05794151  0.00001785  0.10861042       0.006
  -0.02898163  0.01673695  0.10861234       0.006
  -0.00002222  0.06689497  0.10860879       0.006
   0.02893767  0.08361407  0.10861071       0.006
   0.05789755  0.10033317  0.10861264       0.006
   0.08685743  0.11705227  0.10861456       0.006
  -0.08690186  0.01673767  0.10860302       0.006
  -0.05794198  0.03345677  0.10860494       0.006
  -0.02898210  0.05017587  0.10860687       0.006
  -0.00002269  0.10033388  0.10860331       0.006
   0.02893720  0.11705298  0.10860524       0.006
   0.05789708  0.13377208  0.10860716       0.006
   0.08685696  0.15049118  0.10860908       0.006
  -0.08690234  0.05017659  0.10859754       0.006
  -0.05794245  0.06689568  0.10859947       0.006
  -0.02898257  0.08361478  0.10860139       0.006
  -0.00001986 -0.10029961  0.10863617       0.006
   0.02894002 -0.08358051  0.10863809       0.006
   0.05789991 -0.06686141  0.10864002       0.006
   0.08685979 -0.05014231  0.10864194       0.006
  -0.08689951 -0.15045691  0.10863040       0.006
  -0.05793963 -0.13373781  0.10863232       0.006
  -0.02897974 -0.11701871  0.10863425       0.006
  -0.00002033 -0.06686069  0.10863069       0.006
   0.02893955 -0.05014159  0.10863262       0.006
   0.05789944 -0.03342249  0.10863454       0.006
   0.08685932 -0.01670339  0.10863646       0.006
  -0.08689998 -0.11701799  0.10862492       0.006
  -0.05794010 -0.10029889  0.10862685       0.006
  -0.02898021 -0.08357979  0.10862877       0.006
  -0.00002080 -0.03342178  0.10862522       0.006
   0.02893908 -0.01670268  0.10862714       0.006
   0.05789896  0.00001642  0.10862906       0.006
   0.08685885  0.01673552  0.10863099       0.006
  -0.08690045 -0.08357908  0.10861945       0.006
  -0.05794057 -0.06685998  0.10862137       0.006
  -0.02898069 -0.05014088  0.10862329       0.006
 
 k-points in reciprocal lattice and weights: pymatgen 4.7.6+ generated KPOINTS with g
   0.00000000  0.00000000  0.00000000       0.003
   0.14285714 -0.00000000 -0.00000000       0.006
   0.28571429 -0.00000000 -0.00000000       0.006
   0.42857143 -0.00000000  0.00000000       0.006
   0.00000000  0.14285714  0.00000000       0.006
   0.14285714  0.14285714 -0.00000000       0.006
   0.28571429  0.14285714 -0.00000000       0.006
   0.42857143  0.14285714 -0.00000000       0.006
  -0.42857143  0.14285714 -0.00000000       0.006
  -0.28571429  0.14285714  0.00000000       0.006
  -0.14285714  0.14285714  0.00000000       0.006
   0.00000000  0.28571429  0.00000000       0.006
   0.14285714  0.28571429 -0.00000000       0.006
   0.28571429  0.28571429  0.00000000       0.006
   0.42857143  0.28571429 -0.00000000       0.006
  -0.42857143  0.28571429  0.00000000       0.006
  -0.28571429  0.28571429  0.00000000       0.006
  -0.14285714  0.28571429 -0.00000000       0.006
   0.00000000  0.42857143 -0.00000000       0.006
   0.14285714  0.42857143 -0.00000000       0.006
   0.28571429  0.42857143 -0.00000000       0.006
   0.42857143  0.42857143 -0.00000000       0.006
  -0.42857143  0.42857143  0.00000000       0.006
  -0.28571429  0.42857143 -0.00000000       0.006
  -0.14285714  0.42857143 -0.00000000       0.006
  -0.00000000  0.00000000  0.14285714       0.006
   0.14285714  0.00000000  0.14285714       0.006
   0.28571429 -0.00000000  0.14285714       0.006
   0.42857143  0.00000000  0.14285714       0.006
  -0.42857143 -0.00000000  0.14285714       0.006
  -0.28571429 -0.00000000  0.14285714       0.006
  -0.14285714  0.00000000  0.14285714       0.006
  -0.00000000  0.14285714  0.14285714       0.006
   0.14285714  0.14285714  0.14285714       0.006
   0.28571429  0.14285714  0.14285714       0.006
   0.42857143  0.14285714  0.14285714       0.006
  -0.42857143  0.14285714  0.14285714       0.006
  -0.28571429  0.14285714  0.14285714       0.006
  -0.14285714  0.14285714  0.14285714       0.006
  -0.00000000  0.28571429  0.14285714       0.006
   0.14285714  0.28571429  0.14285714       0.006
   0.28571429  0.28571429  0.14285714       0.006
   0.42857143  0.28571429  0.14285714       0.006
  -0.42857143  0.28571429  0.14285714       0.006
  -0.28571429  0.28571429  0.14285714       0.006
  -0.14285714  0.28571429  0.14285714       0.006
  -0.00000000  0.42857143  0.14285714       0.006
   0.14285714  0.42857143  0.14285714       0.006
   0.28571429  0.42857143  0.14285714       0.006
   0.42857143  0.42857143  0.14285714       0.006
  -0.42857143  0.42857143  0.14285714       0.006
  -0.28571429  0.42857143  0.14285714       0.006
  -0.14285714  0.42857143  0.14285714       0.006
  -0.00000000 -0.42857143  0.14285714       0.006
   0.14285714 -0.42857143  0.14285714       0.006
   0.28571429 -0.42857143  0.14285714       0.006
   0.42857143 -0.42857143  0.14285714       0.006
  -0.42857143 -0.42857143  0.14285714       0.006
  -0.28571429 -0.42857143  0.14285714       0.006
  -0.14285714 -0.42857143  0.14285714       0.006
  -0.00000000 -0.28571429  0.14285714       0.006
   0.14285714 -0.28571429  0.14285714       0.006
   0.28571429 -0.28571429  0.14285714       0.006
   0.42857143 -0.28571429  0.14285714       0.006
  -0.42857143 -0.28571429  0.14285714       0.006
  -0.28571429 -0.28571429  0.14285714       0.006
  -0.14285714 -0.28571429  0.14285714       0.006
  -0.00000000 -0.14285714  0.14285714       0.006
   0.14285714 -0.14285714  0.14285714       0.006
   0.28571429 -0.14285714  0.14285714       0.006
   0.42857143 -0.14285714  0.14285714       0.006
  -0.42857143 -0.14285714  0.14285714       0.006
  -0.28571429 -0.14285714  0.14285714       0.006
  -0.14285714 -0.14285714  0.14285714       0.006
  -0.00000000 -0.00000000  0.28571429       0.006
   0.14285714 -0.00000000  0.28571429       0.006
   0.28571429  0.00000000  0.28571429       0.006
   0.42857143  0.00000000  0.28571429       0.006
  -0.42857143 -0.00000000  0.28571429       0.006
  -0.28571429  0.00000000  0.28571429       0.006
  -0.14285714  0.00000000  0.28571429       0.006
  -0.00000000  0.14285714  0.28571429       0.006
   0.14285714  0.14285714  0.28571429       0.006
   0.28571429  0.14285714  0.28571429       0.006
   0.42857143  0.14285714  0.28571429       0.006
  -0.42857143  0.14285714  0.28571429       0.006
  -0.28571429  0.14285714  0.28571429       0.006
  -0.14285714  0.14285714  0.28571429       0.006
   0.00000000  0.28571429  0.28571429       0.006
   0.14285714  0.28571429  0.28571429       0.006
   0.28571429  0.28571429  0.28571429       0.006
   0.42857143  0.28571429  0.28571429       0.006
  -0.42857143  0.28571429  0.28571429       0.006
[...]
     28       0.5774      1.00000
     29       0.6818      1.00000
     30       0.9825      1.00000
     31       0.9854      1.00000
     32       6.3189      0.00000
     33       6.4356      0.00000
     34       6.5415      0.00000
     35       6.7690      0.00000
     36       6.8121      0.00000
     37       6.9489      0.00000
     38       8.1853      0.00000
     39       8.2710      0.00000
     40       8.5475      0.00000
     41       8.8333      0.00000
     42      14.1328      0.00000
     43      16.4590      0.00000
     44      17.9662      0.00000
     45      18.1336      0.00000
     46      19.1970      0.00000
     47      19.3305      0.00000
     48      19.3464      0.00000
     49      19.8731      0.00000
     50      20.5304      0.00000
     51      21.3744      0.00000
     52      22.5875      0.00000
     53      23.0844      0.00000
     54      23.2517      0.00000
     55      24.2879      0.00000
     56      24.3181      0.00000

 k-point   169 :       0.4286   -0.1429    0.4286
  band No.  band energies     occupation 
      1     -47.7049      1.00000
      2     -47.6719      1.00000
      3     -47.6216      1.00000
      4     -47.6146      1.00000
      5     -47.6059      1.00000
      6     -47.5814      1.00000
      7     -42.5772      1.00000
      8     -17.8063      1.00000
      9     -17.3382      1.00000
     10     -17.2727      1.00000
     11     -17.2122      1.00000
     12     -17.1036      1.00000
     13     -16.7775      1.00000
     14      -3.9401      1.00000
     15      -3.7133      1.00000
     16      -3.3483      1.00000
     17      -3.2351      1.00000
     18      -2.8786      1.00000
     19      -2.3376      1.00000
     20      -1.9210      1.00000
     21      -1.7510      1.00000
     22      -1.5106      1.00000
     23      -1.1874      1.00000
     24      -0.4754      1.00000
     25      -0.0272      1.00000
     26       0.0793      1.00000
     27       0.1905      1.00000
     28       0.4022      1.00000
     29       0.5830      1.00000
     30       0.8540      1.00000
     31       0.9563      1.00000
     32       6.3345      0.00000
     33       6.4174      0.00000
     34       6.5097      0.00000
     35       6.8017      0.00000
     36       6.9043      0.00000
     37       6.9363      0.00000
     38       8.0117      0.00000
     39       8.1552      0.00000
     40       8.4339      0.00000
     41       8.7789      0.00000
     42      14.4845      0.00000
     43      16.8973      0.00000
     44      17.3432      0.00000
     45      17.9053      0.00000
     46      18.7653      0.00000
     47      19.0121      0.00000
     48      19.1385      0.00000
     49      20.0018      0.00000
     50      20.8337      0.00000
     51      21.4470      0.00000
     52      22.4062      0.00000
     53      23.4150      0.00000
     54      24.0038      0.00000
     55      24.2248      0.00000
     56      24.6815      0.00000

 k-point   170 :      -0.4286   -0.1429    0.4286
  band No.  band energies     occupation 
      1     -47.7065      1.00000
      2     -47.6635      1.00000
      3     -47.6244      1.00000
      4     -47.6171      1.00000
      5     -47.6090      1.00000
      6     -47.5798      1.00000
      7     -42.5772      1.00000
      8     -17.6381      1.00000
      9     -17.4357      1.00000
     10     -17.2513      1.00000
     11     -17.2414      1.00000
     12     -17.1810      1.00000
     13     -16.7728      1.00000
     14      -4.0111      1.00000
     15      -3.7315      1.00000
     16      -3.4219      1.00000
     17      -3.0473      1.00000
     18      -2.9385      1.00000
     19      -2.4502      1.00000
     20      -2.0774      1.00000
     21      -1.6141      1.00000
     22      -1.5623      1.00000
     23      -1.0060      1.00000
     24      -0.3419      1.00000
     25       0.0782      1.00000
     26       0.0845      1.00000
     27       0.2941      1.00000
     28       0.3253      1.00000
     29       0.5497      1.00000
     30       0.8010      1.00000
     31       0.9356      1.00000
     32       6.3360      0.00000
     33       6.4047      0.00000
     34       6.4948      0.00000
     35       6.8281      0.00000
     36       6.9282      0.00000
     37       6.9288      0.00000
     38       7.9142      0.00000
     39       8.2284      0.00000
     40       8.2916      0.00000
     41       8.7558      0.00000
     42      14.6594      0.00000
     43      17.0030      0.00000
     44      17.0032      0.00000
     45      18.3278      0.00000
     46      18.4099      0.00000
     47      18.7039      0.00000
     48      19.0271      0.00000
     49      20.1388      0.00000
     50      21.0604      0.00000
     51      21.3591      0.00000
     52      22.0217      0.00000
     53      23.6606      0.00000
     54      24.4015      0.00000
     55      24.4769      0.00000
     56      24.6983      0.00000

 k-point   171 :      -0.2857   -0.1429    0.4286
  band No.  band energies     occupation 
      1     -47.7049      1.00000
      2     -47.6719      1.00000
      3     -47.6215      1.00000
      4     -47.6146      1.00000
      5     -47.6059      1.00000
      6     -47.5814      1.00000
      7     -42.5772      1.00000
      8     -17.8063      1.00000
      9     -17.3380      1.00000
     10     -17.2729      1.00000
     11     -17.2121      1.00000
     12     -17.1038      1.00000
     13     -16.7775      1.00000
     14      -3.9402      1.00000
     15      -3.7134      1.00000
     16      -3.3483      1.00000
     17      -3.2351      1.00000
     18      -2.8785      1.00000
     19      -2.3374      1.00000
     20      -1.9211      1.00000
     21      -1.7510      1.00000
     22      -1.5105      1.00000
     23      -1.1875      1.00000
     24      -0.4757      1.00000
     25      -0.0272      1.00000
     26       0.0792      1.00000
     27       0.1907      1.00000
     28       0.4022      1.00000
     29       0.5834      1.00000
     30       0.8540      1.00000
     31       0.9563      1.00000
     32       6.3346      0.00000
     33       6.4174      0.00000
     34       6.5097      0.00000
     35       6.8017      0.00000
     36       6.9043      0.00000
     37       6.9363      0.00000
     38       8.0118      0.00000
     39       8.1553      0.00000
     40       8.4338      0.00000
     41       8.7788      0.00000
     42      14.4845      0.00000
     43      16.8972      0.00000
     44      17.3434      0.00000
     45      17.9054      0.00000
     46      18.7651      0.00000
     47      19.0125      0.00000
     48      19.1383      0.00000
     49      20.0017      0.00000
     50      20.8338      0.00000
     51      21.4468      0.00000
     52      22.4064      0.00000
     53      23.4149      0.00000
     54      24.0039      0.00000
     55      24.2247      0.00000
     56      24.6833      0.00000

 k-point   172 :      -0.1429   -0.1429    0.4286
  band No.  band energies     occupation 
      1     -47.7010      1.00000
      2     -47.6848      1.00000
      3     -47.6255      1.00000
      4     -47.6019      1.00000
      5     -47.6016      1.00000
      6     -47.5851      1.00000
      7     -42.5772      1.00000
      8     -18.0099      1.00000
      9     -17.3548      1.00000
     10     -17.2026      1.00000
     11     -17.1587      1.00000
     12     -16.9726      1.00000
     13     -16.7908      1.00000
     14      -3.7648      1.00000
     15      -3.6429      1.00000
     16      -3.3583      1.00000
     17      -3.2294      1.00000
     18      -2.7282      1.00000
     19      -2.2686      1.00000
     20      -1.9082      1.00000
     21      -1.7924      1.00000
     22      -1.7720      1.00000
     23      -1.2233      1.00000
     24      -0.6916      1.00000
     25      -0.3190      1.00000
     26      -0.1938      1.00000
     27       0.1501      1.00000
     28       0.5774      1.00000
     29       0.6820      1.00000
     30       0.9822      1.00000
     31       0.9856      1.00000
     32       6.3190      0.00000
     33       6.4356      0.00000
     34       6.5415      0.00000
     35       6.7691      0.00000
     36       6.8122      0.00000
     37       6.9489      0.00000
     38       8.1854      0.00000
     39       8.2710      0.00000
     40       8.5475      0.00000
     41       8.8331      0.00000
     42      14.1328      0.00000
     43      16.4589      0.00000
     44      17.9664      0.00000
     45      18.1336      0.00000
     46      19.1966      0.00000
     47      19.3308      0.00000
     48      19.3464      0.00000
     49      19.8732      0.00000
     50      20.5304      0.00000
     51      21.3742      0.00000
     52      22.5875      0.00000
     53      23.0844      0.00000
     54      23.2520      0.00000
     55      24.2874      0.00000
     56      24.3179      0.00000


--------------------------------------------------------------------------------------------------------


 soft charge-density along one line, spin component           1
         0         1         2         3         4         5         6         7         8         9
 total charge-density along one line
 
 soft charge-density along one line, spin component           2
         0         1         2         3         4         5         6         7         8         9
 total charge-density along one line
 
 pseudopotential strength for first ion, spin component:           1
-34.445   4.936   0.000   0.000  -0.000
  4.936 -11.547   0.000   0.000  -0.000
  0.000   0.000   0.045  -0.000   0.000
  0.000   0.000  -0.000   0.047  -0.000
 -0.000  -0.000   0.000  -0.000   0.045
 pseudopotential strength for first ion, spin component:           2
-34.439   4.939   0.000  -0.000  -0.000
  4.939 -11.549   0.000  -0.000  -0.000
  0.000   0.000   0.048  -0.000   0.000
 -0.000  -0.000  -0.000   0.050  -0.000
 -0.000  -0.000   0.000  -0.000   0.048
 total augmentation occupancy for first ion, spin component:           1
  1.999  -0.034   0.000  -0.000  -0.000
 -0.034   0.609   0.000   0.000  -0.000
  0.000   0.000   0.027   0.000  -0.000
 -0.000   0.000   0.000   0.022   0.000
 -0.000  -0.000  -0.000   0.000   0.027
 total augmentation occupancy for first ion, spin component:           2
 -0.000   0.000  -0.000   0.000   0.000
  0.000   0.020  -0.000   0.000   0.000
 -0.000  -0.000   0.002   0.000   0.000
  0.000   0.000   0.000   0.003  -0.000
  0.000   0.000   0.000  -0.000   0.002


------------------------ aborting loop because EDIFF is reached ----------------------------------------


 


 total charge     
 
# of ion       s       p       d       tot
------------------------------------------
    1        2.016   0.055   0.000   2.071
    2        0.403   6.548   4.817  11.767
    3        0.403   6.548   4.817  11.767
    4        1.596   3.366   0.000   4.963
    5        1.596   3.366   0.000   4.963
    6        1.596   3.366   0.000   4.963
    7        1.596   3.366   0.000   4.963
    8        1.596   3.366   0.000   4.963
    9        1.596   3.366   0.000   4.963
--------------------------------------------------
tot         12.400  33.349   9.633  55.383
 


 magnetization (x)
 
# of ion       s       p       d       tot
------------------------------------------
    1        0.001   0.005   0.000   0.006
    2        0.030   0.053   2.880   2.963
    3        0.030   0.053   2.880   2.963
    4       -0.012  -0.438   0.000  -0.450
    5       -0.012  -0.438   0.000  -0.450
    6       -0.012  -0.437   0.000  -0.450
    7       -0.012  -0.438   0.000  -0.450
    8       -0.012  -0.438   0.000  -0.450
    9       -0.012  -0.437   0.000  -0.450
--------------------------------------------------
tot         -0.011  -2.515   5.760   3.234
 
    FORLOC:  cpu time    0.0007: real time    0.0007
    FORHF :  cpu time 4254.1301: real time 4269.7577
    FORNL :  cpu time    0.2639: real time    0.2671
    STRESS:  cpu time    0.8036: real time    0.8051
    FORCOR:  cpu time    0.0255: real time    0.0262
    OFIELD:  cpu time    0.0001: real time    0.0001

  FORCE on cell =-STRESS in cart. coord.  units (eV):
  Direction    XX          YY          ZZ          XY          YZ          ZX
  --------------------------------------------------------------------------------------
  Alpha Z   260.25247   260.25247   260.25247
  Ewald   -1427.13819 -1427.18568 -1732.80848     0.00347    -0.00293     0.09867
  Hartree   701.39704   701.36177   566.21254     0.00184     0.00248     0.04702
  E(xc)    -262.00051  -262.00053  -262.21178    -0.00001    -0.00004     0.00007
  Local    -337.81723  -337.73701   110.22963    -0.00682     0.00208    -0.14699
  n-local   -32.30615   -32.30586   -29.56409     0.00087     0.00390    -0.00091
  augment   237.01030   237.01159   234.57386     0.00092    -0.00064     0.00040
  Kinetic  1102.29864  1102.30220  1093.60093     0.00296    -0.00081     0.00249
  Fock     -241.77437  -241.77701  -240.35571    -0.00233     0.00005    -0.00023
  -------------------------------------------------------------------------------------
  Total      -0.07800    -0.07806    -0.07063     0.00089     0.00411     0.00051
  in kB      -1.50640    -1.50758    -1.36413     0.01717     0.07931     0.00980
  external pressure =       -1.46 kB  Pullay stress =        0.00 kB


 VOLUME and BASIS-vectors are now :
 -----------------------------------------------------------------------------
  energy-cutoff  :      500.00
  volume of cell :       82.96
      direct lattice vectors                 reciprocal lattice vectors
     4.955804679 -0.000028589  0.000841450     0.201784247  0.116502071  0.000020170
    -2.477934523  4.291839350 -0.001152485     0.000001350  0.233001104 -0.000035152
    -0.000729593  0.000588427  3.900243543    -0.000043533  0.000043715  0.256394231

  length of vectors
     4.955804750  4.955809302  3.900243655     0.233001320  0.233001106  0.256394238


 FORCES acting on ions:
    Electron-Ion                     Ewald-Force                    Non-Local-Force
 -----------------------------------------------------------------------------------------------
   -.514E-06 0.370E-06 -.110E-09   -.355E-14 0.178E-13 0.249E-13   0.159E-20 0.990E-21 0.127E-23
   -.176E-01 -.943E-02 -.350E-03   0.181E-01 0.985E-02 0.338E-03   0.293E-04 0.179E-03 0.154E-04
   0.176E-01 0.943E-02 0.350E-03   -.181E-01 -.985E-02 -.338E-03   -.293E-04 -.179E-03 -.154E-04
   -.826E+02 -.143E+03 0.180E+03   0.894E+02 0.155E+03 -.196E+03   -.589E+01 -.102E+02 0.139E+02
   0.165E+03 0.317E-01 0.180E+03   -.179E+03 -.345E-01 -.196E+03   0.118E+02 0.414E-02 0.139E+02
   -.826E+02 0.143E+03 0.180E+03   0.894E+02 -.155E+03 -.196E+03   -.589E+01 0.102E+02 0.139E+02
   -.165E+03 -.317E-01 -.180E+03   0.179E+03 0.345E-01 0.196E+03   -.118E+02 -.414E-02 -.139E+02
   0.826E+02 0.143E+03 -.180E+03   -.894E+02 -.155E+03 0.196E+03   0.589E+01 0.102E+02 -.139E+02
   0.826E+02 -.143E+03 -.180E+03   -.894E+02 0.155E+03 0.196E+03   0.589E+01 -.102E+02 -.139E+02
 -----------------------------------------------------------------------------------------------
   -.457E-06 0.343E-06 0.787E-08   -.142E-13 -.284E-13 0.284E-13   0.178E-14 0.000E+00 0.000E+00
 
 
 POSITION                                       TOTAL-FORCE (eV/Angst)
 -----------------------------------------------------------------------------------
      0.00000     -0.00000      0.00000         0.000000      0.000000      0.000000
     -0.00039      2.86150      1.94963         0.000479      0.000599      0.000000
      2.47753      1.43090      1.95030        -0.000479     -0.000599     -0.000000
      1.57219      2.72357      0.94433         0.004915      0.008818      0.006298
     -0.66721      4.29195      0.94376        -0.010661      0.001633      0.000839
      4.05014      1.56841      0.94501         0.004961     -0.009194      0.006231
      3.14435      0.00045      2.95617         0.010661     -0.001633     -0.000839
      0.90495      1.56883      2.95561        -0.004915     -0.008818     -0.006298
     -1.57300      2.72399      2.95492        -0.004961      0.009194     -0.006231
 -----------------------------------------------------------------------------------
    total drift:                               -0.000000      0.000000      0.000000


--------------------------------------------------------------------------------------------------------



  FREE ENERGIE OF THE ION-ELECTRON SYSTEM (eV)
  ---------------------------------------------------
  free  energy   TOTEN  =       -79.81486922 eV

  energy  without entropy=      -79.81719747  energy(sigma->0) =      -79.81545128
 
 d Force = 0.2613886E-03[-0.270E-03, 0.793E-03]  d Energy = 0.7029277E-03-0.442E-03
 d Force = 0.1133336E+01[ 0.111E+01, 0.116E+01]  d Ewald  = 0.3238192E+01-0.210E+01


--------------------------------------------------------------------------------------------------------


    POTLOK:  cpu time    1.5196: real time    1.5209


--------------------------------------------------------------------------------------------------------


 Quasi-Newton relaxation of ions (Broydens 2nd method)
  g(Force)  = 0.393E-04   g(Stress)= 0.922E-04

 retain information from N=  1 steps
 eigenvalues of (default step * inverse Hessian matrix)
  average eigenvalue of G=   2.3336
 eigenvalue spectrum of G is  2.3336


--------------------------------------------------------------------------------------------------------


  
 reached required accuracy - stopping structural energy minimisation
 writing wavefunctions
     LOOP+:  cpu time33326.1271: real time33446.8077
    4ORBIT:  cpu time    0.0000: real time    0.0000
 


 total charge     
 
# of ion       s       p       d       tot
------------------------------------------
    1        2.016   0.055   0.000   2.071
    2        0.403   6.548   4.817  11.767
    3        0.403   6.548   4.817  11.767
    4        1.596   3.366   0.000   4.963
    5        1.596   3.366   0.000   4.963
    6        1.596   3.366   0.000   4.963
    7        1.596   3.366   0.000   4.963
    8        1.596   3.366   0.000   4.963
    9        1.596   3.366   0.000   4.963
--------------------------------------------------
tot         12.400  33.349   9.633  55.383
 


 magnetization (x)
 
# of ion       s       p       d       tot
------------------------------------------
    1        0.001   0.005   0.000   0.006
    2        0.030   0.053   2.880   2.963
    3        0.030   0.053   2.880   2.963
    4       -0.012  -0.438   0.000  -0.450
    5       -0.012  -0.438   0.000  -0.450
    6       -0.012  -0.437   0.000  -0.450
    7       -0.012  -0.438   0.000  -0.450
    8       -0.012  -0.438   0.000  -0.450
    9       -0.012  -0.437   0.000  -0.450
--------------------------------------------------
tot         -0.011  -2.515   5.760   3.234
 

 total amount of memory used by VASP MPI-rank0   114901. kBytes
=======================================================================

   base      :      30000. kBytes
   nonlr-proj:       7236. kBytes
   fftplans  :        275. kBytes
   grid      :       2019. kBytes
   one-center:        279. kBytes
   HF        :        194. kBytes
   wavefun   :      74898. kBytes
 
  
  
 General timing and accounting informations for this job:
 ========================================================
  
                  Total CPU time used (sec):   209262.750
                            User time (sec):   209107.820
                          System time (sec):      154.926
                         Elapsed time (sec):   209933.182
  
                   Maximum memory used (kb):      388912.
                   Average memory used (kb):           0.
  
                          Minor page faults:      3659053
                          Major page faults:            0
                 Voluntary context switches:        13643
