 vasp.5.4.4.18Apr17-6-g9f103f2a35 (build Dec 07 2017 12:23:07) complex          
  
 executed on     UA-Leibniz-2016b date 2018.11.06  18:56:27
 running on  112 total cores
 distrk:  each k-point on   14 cores,    8 groups
 distr:  one band on NCORES_PER_BAND=   1 cores,   14 groups


--------------------------------------------------------------------------------------------------------


 INCAR:
 POTCAR:    PAW_PBE Li_sv 10Sep2004               
 POTCAR:    PAW_PBE Ir 06Sep2000                  
 POTCAR:    PAW_PBE O 08Apr2002                   

 ----------------------------------------------------------------------------- 
|                                                                             |
|           W    W    AA    RRRRR   N    N  II  N    N   GGGG   !!!           |
|           W    W   A  A   R    R  NN   N  II  NN   N  G    G  !!!           |
|           W    W  A    A  R    R  N N  N  II  N N  N  G       !!!           |
|           W WW W  AAAAAA  RRRRR   N  N N  II  N  N N  G  GGG   !            |
|           WW  WW  A    A  R   R   N   NN  II  N   NN  G    G                |
|           W    W  A    A  R    R  N    N  II  N    N   GGGG   !!!           |
|                                                                             |
|      For optimal performance we recommend to set                            |
|        NCORE= 4 - approx SQRT( number of cores)                             |
|      NCORE specifies how many cores store one orbital (NPAR=cpu/NCORE).     |
|      This setting can  greatly improve the performance of VASP for DFT.     |
|      The default,   NCORE=1            might be grossly inefficient         |
|      on modern multi-core architectures or massively parallel machines.     |
|      Do your own testing !!!!                                               |
|      Unfortunately you need to use the default for GW and RPA calculations. |
|      (for HF NCORE is supported but not extensively tested yet)             |
|                                                                             |
 ----------------------------------------------------------------------------- 


 ----------------------------------------------------------------------------- 
|                                                                             |
|           W    W    AA    RRRRR   N    N  II  N    N   GGGG   !!!           |
|           W    W   A  A   R    R  NN   N  II  NN   N  G    G  !!!           |
|           W    W  A    A  R    R  N N  N  II  N N  N  G       !!!           |
|           W WW W  AAAAAA  RRRRR   N  N N  II  N  N N  G  GGG   !            |
|           WW  WW  A    A  R   R   N   NN  II  N   NN  G    G                |
|           W    W  A    A  R    R  N    N  II  N    N   GGGG   !!!           |
|                                                                             |
|      You have enabled k-point parallelism (KPAR>1).                         |
|      This developmental code was originally  written by Paul Kent at ORNL,  |
|      and carefully double checked in Vienna.                                |
|      GW as well as linear response parallelism added by Martijn Marsman     |
|      and Georg Kresse.                                                      |
|      Carefully verify results versus KPAR=1.                                |
|      Report problems to Paul Kent and Vienna.                               |
|                                                                             |
 ----------------------------------------------------------------------------- 

 POTCAR:    PAW_PBE Li_sv 10Sep2004               
   VRHFIN =Li: 1s2s2p                                                           
   LEXCH  = PE                                                                  
   EATOM  =   202.7858 eV,   14.9043 Ry                                         
                                                                                
   TITEL  = PAW_PBE Li_sv 10Sep2004                                             
   LULTRA =        F    use ultrasoft PP ?                                      
   IUNSCR =        0    unscreen: 0-lin 1-nonlin 2-no                           
   RPACOR =    0.000    partial core radius                                     
   POMASS =    7.010; ZVAL   =    3.000    mass and valenz                      
   RCORE  =    1.700    outmost cutoff radius                                   
   RWIGS  =    2.050; RWIGS  =    1.085    wigner-seitz radius (au A)           
   ENMAX  =  499.034; ENMIN  =  374.276 eV                                      
   ICORE  =        2    local potential                                         
   LCOR   =        T    correct aug charges                                     
   LPAW   =        T    paw PP                                                  
   EAUG   =  628.945                                                            
   RMAX   =    1.732    core radius for proj-oper                               
   RAUG   =    1.300    factor for augmentation sphere                          
   RDEP   =    1.728    radius for radial grids                                 
   RDEPT  =    1.329    core radius for aug-charge                              
                                                                                
   Atomic configuration                                                         
    4 entries                                                                   
     n  l   j            E        occ.                                          
     1  0  0.50       -51.8549   2.0000                                         
     2  0  0.50        -2.8742   1.0000                                         
     2  1  0.50        -1.3606   0.0000                                         
     3  2  1.50        -1.3606   0.0000                                         
   Description                                                                  
     l       E           TYP  RCUT    TYP  RCUT                                 
     0    -51.8548813     23  1.400                                             
     0     -2.8742052     23  1.700                                             
     1     -1.3605826     23  1.400                                             
     2     -1.3605826     23  1.400                                             
  local pseudopotential read in
  atomic valenz-charges read in
  non local Contribution for L=           0  read in
    real space projection operators read in
  non local Contribution for L=           0  read in
    real space projection operators read in
  non local Contribution for L=           1  read in
    real space projection operators read in
    PAW grid and wavefunctions read in
 
   number of l-projection  operators is LMAX  =           3
   number of lm-projection operators is LMMAX =           5
 
 POTCAR:    PAW_PBE Ir 06Sep2000                  
   VRHFIN =Ir: s1d8                                                             
   LEXCH  = PE                                                                  
   EATOM  =   560.1833 eV,   41.1723 Ry                                         
                                                                                
   TITEL  = PAW_PBE Ir 06Sep2000                                                
   LULTRA =        F    use ultrasoft PP ?                                      
   IUNSCR =        1    unscreen: 0-lin 1-nonlin 2-no                           
   RPACOR =    2.250    partial core radius                                     
   POMASS =  192.220; ZVAL   =    9.000    mass and valenz                      
   RCORE  =    2.600    outmost cutoff radius                                   
   RWIGS  =    2.690; RWIGS  =    1.423    wigner-seitz radius (au A)           
   ENMAX  =  210.864; ENMIN  =  158.148 eV                                      
   RCLOC  =    1.857    cutoff for local pot                                    
   LCOR   =        T    correct aug charges                                     
   LPAW   =        T    paw PP                                                  
   EAUG   =  318.962                                                            
   DEXC   =    0.000                                                            
   RMAX   =    2.667    core radius for proj-oper                               
   RAUG   =    1.300    factor for augmentation sphere                          
   RDEP   =    2.748    radius for radial grids                                 
   RDEPT  =    2.300    core radius for aug-charge                              
                                                                                
   Atomic configuration                                                         
   16 entries                                                                   
     n  l   j            E        occ.                                          
     1  0  0.50    -76100.0449   2.0000                                         
     2  0  0.50    -13308.1683   2.0000                                         
     2  1  1.50    -11558.0021   6.0000                                         
     3  0  0.50     -3110.7274   2.0000                                         
     3  1  1.50     -2599.2109   6.0000                                         
     3  2  2.50     -2037.1515  10.0000                                         
     4  0  0.50      -661.6001   2.0000                                         
     4  1  1.50      -493.8981   6.0000                                         
     4  2  2.50      -288.1909  10.0000                                         
     4  3  3.50       -59.5718  14.0000                                         
     5  0  0.50       -95.3879   2.0000                                         
     5  1  1.50       -52.2747   6.0000                                         
     5  2  2.50        -5.4180   8.0000                                         
     6  0  0.50        -5.5479   1.0000                                         
     6  1  1.50        -6.8029   0.0000                                         
     5  3  2.50        -1.3606   0.0000                                         
   Description                                                                  
     l       E           TYP  RCUT    TYP  RCUT                                 
     2     -5.4179967     23  2.600                                             
     2     -6.7785793     23  2.600                                             
     0     -5.5478636     23  2.600                                             
     0      2.2542272     23  2.600                                             
     1     -2.7211652     23  2.600                                             
     1     20.4087390     23  2.600                                             
  local pseudopotential read in
  partial core-charges read in
  partial kinetic energy density read in
  atomic valenz-charges read in
  non local Contribution for L=           2  read in
    real space projection operators read in
  non local Contribution for L=           2  read in
    real space projection operators read in
  non local Contribution for L=           0  read in
    real space projection operators read in
  non local Contribution for L=           0  read in
    real space projection operators read in
  non local Contribution for L=           1  read in
    real space projection operators read in
  non local Contribution for L=           1  read in
    real space projection operators read in
    PAW grid and wavefunctions read in
 
   number of l-projection  operators is LMAX  =           6
   number of lm-projection operators is LMMAX =          18
 
 POTCAR:    PAW_PBE O 08Apr2002                   
   VRHFIN =O: s2p4                                                              
   LEXCH  = PE                                                                  
   EATOM  =   432.3788 eV,   31.7789 Ry                                         
                                                                                
   TITEL  = PAW_PBE O 08Apr2002                                                 
   LULTRA =        F    use ultrasoft PP ?                                      
   IUNSCR =        1    unscreen: 0-lin 1-nonlin 2-no                           
   RPACOR =    1.200    partial core radius                                     
   POMASS =   16.000; ZVAL   =    6.000    mass and valenz                      
   RCORE  =    1.520    outmost cutoff radius                                   
   RWIGS  =    1.550; RWIGS  =    0.820    wigner-seitz radius (au A)           
   ENMAX  =  400.000; ENMIN  =  300.000 eV                                      
   ICORE  =        2    local potential                                         
   LCOR   =        T    correct aug charges                                     
   LPAW   =        T    paw PP                                                  
   EAUG   =  605.392                                                            
   DEXC   =    0.000                                                            
   RMAX   =    1.553    core radius for proj-oper                               
   RAUG   =    1.300    factor for augmentation sphere                          
   RDEP   =    1.550    radius for radial grids                                 
   RDEPT  =    1.329    core radius for aug-charge                              
                                                                                
   Atomic configuration                                                         
    4 entries                                                                   
     n  l   j            E        occ.                                          
     1  0  0.50      -514.6923   2.0000                                         
     2  0  0.50       -23.9615   2.0000                                         
     2  1  0.50        -9.0305   4.0000                                         
     3  2  1.50        -9.5241   0.0000                                         
   Description                                                                  
     l       E           TYP  RCUT    TYP  RCUT                                 
     0    -23.9615318     23  1.200                                             
     0     -9.5240782     23  1.200                                             
     1     -9.0304911     23  1.520                                             
     1      8.1634956     23  1.520                                             
     2     -9.5240782      7  1.500                                             
  local pseudopotential read in
  partial core-charges read in
  partial kinetic energy density read in
  kinetic energy density of atom read in
  atomic valenz-charges read in
  non local Contribution for L=           0  read in
    real space projection operators read in
  non local Contribution for L=           0  read in
    real space projection operators read in
  non local Contribution for L=           1  read in
    real space projection operators read in
  non local Contribution for L=           1  read in
    real space projection operators read in
    PAW grid and wavefunctions read in
 
   number of l-projection  operators is LMAX  =           4
   number of lm-projection operators is LMMAX =           8
 
 Optimization of the real space projectors (new method)

 maximal supplied QI-value         = 22.11
 optimisation between [QCUT,QGAM] = [ 11.28, 22.77] = [ 35.61,145.23] Ry 
 Optimized for a Real-space Cutoff    1.07 Angstroem

   l    n(q)    QCUT    max X(q) W(low)/X(q) W(high)/X(q)  e(spline) 
   0      7    11.276    10.506    0.35E-04    0.79E-04    0.14E-07
   0      7    11.276     8.367    0.77E-04    0.18E-03    0.29E-07
   1      7    11.276     8.983    0.48E-03    0.57E-03    0.79E-07
 Optimization of the real space projectors (new method)

 maximal supplied QI-value         = 14.36
 optimisation between [QCUT,QGAM] = [ 11.35, 22.84] = [ 36.05,146.02] Ry 
 Optimized for a Real-space Cutoff    1.52 Angstroem

   l    n(q)    QCUT    max X(q) W(low)/X(q) W(high)/X(q)  e(spline) 
   2      9    11.346   134.116    0.47E-03    0.13E-03    0.92E-06
   2      9    11.346   130.192    0.47E-03    0.13E-03    0.92E-06
   0     10    11.346    60.310    0.74E-04    0.13E-03    0.69E-06
   0     10    11.346    39.218    0.68E-04    0.12E-03    0.65E-06
   1     10    11.346    18.439    0.15E-03    0.34E-04    0.20E-06
   1     10    11.346    12.760    0.12E-03    0.31E-04    0.16E-06
 Optimization of the real space projectors (new method)

 maximal supplied QI-value         = 24.76
 optimisation between [QCUT,QGAM] = [ 11.39, 22.77] = [ 36.31,145.25] Ry 
 Optimized for a Real-space Cutoff    1.00 Angstroem

   l    n(q)    QCUT    max X(q) W(low)/X(q) W(high)/X(q)  e(spline) 
   0      7    11.387    20.381    0.39E-03    0.13E-02    0.15E-06
   0      7    11.387    15.268    0.42E-03    0.14E-02    0.17E-06
   1      6    11.387     5.964    0.41E-03    0.11E-02    0.17E-06
   1      6    11.387     5.382    0.39E-03    0.87E-03    0.15E-06
  PAW_PBE Li_sv 10Sep2004               :
 energy of atom  1       EATOM= -202.7858
 kinetic energy error for atom=    0.0143 (will be added to EATOM!!)
  PAW_PBE Ir 06Sep2000                  :
 energy of atom  2       EATOM= -560.1833
 kinetic energy error for atom=    0.0018 (will be added to EATOM!!)
  PAW_PBE O 08Apr2002                   :
 energy of atom  3       EATOM= -432.3788
 kinetic energy error for atom=    0.0224 (will be added to EATOM!!)
 
 
 POSCAR: Li4 Ir2 O6                              
  positions in direct lattice
  No initial velocities read in
 exchange correlation table for  LEXCH =        8
   RHO(1)=    0.500       N(1)  =     2000
   RHO(2)=  100.500       N(2)  =     4000
 


--------------------------------------------------------------------------------------------------------


 ion  position               nearest neighbor table
   1  0.000  0.000  0.000-   8 2.24   9 2.24  10 2.24  12 2.24  11 2.24   7 2.24   2 2.30   2 2.30

   2  0.000  0.000  0.500-   8 2.11   9 2.11  10 2.11  12 2.11  11 2.11   7 2.11   1 2.30   1 2.30
                             6 2.99   5 2.99   6 2.99   5 2.99   6 2.99   5 2.99
   3  0.333  0.667  0.000-   8 2.10  12 2.10  10 2.10   9 2.10  11 2.10   7 2.10   5 2.30   5 2.30

   4  0.667  0.333  0.000-   9 2.10  10 2.10   8 2.10  12 2.10  11 2.10   7 2.10   6 2.30   6 2.30

   5  0.333  0.667  0.500-   8 1.96  12 1.96  10 1.96   9 1.96  11 1.96   7 1.96   3 2.30   3 2.30
                             2 2.99   6 2.99   6 2.99   2 2.99   2 2.99   6 2.99
   6  0.667  0.333  0.500-   9 1.96  10 1.96   8 1.96  12 1.96  11 1.96   7 1.96   4 2.30   4 2.30
                             2 2.99   5 2.99   5 2.99   2 2.99   2 2.99   5 2.99
   7  0.644  0.644  0.276-   5 1.96   6 1.96   3 2.10   4 2.10   2 2.11   1 2.24
   8  0.356  0.000  0.276-   5 1.96   6 1.96   3 2.10   4 2.10   2 2.11   1 2.24
   9  0.000  0.356  0.276-   6 1.96   5 1.96   4 2.10   3 2.10   2 2.11   1 2.24
  10  0.644  0.000  0.724-   6 1.96   5 1.96   4 2.10   3 2.10   2 2.11   1 2.24
  11  0.356  0.356  0.724-   5 1.96   6 1.96   3 2.10   4 2.10   2 2.11   1 2.24
  12  0.000  0.644  0.724-   5 1.96   6 1.96   3 2.10   4 2.10   2 2.11   1 2.24
 
  LATTYP: Found a hexagonal cell.
 ALAT       =     5.1741220000
 C/A-ratio  =     0.8889832903
  
  Lattice vectors:
  
 A1 = (   2.5870610000,  -4.4809210000,   0.0000000000)
 A2 = (   2.5870610000,   4.4809210000,   0.0000000000)
 A3 = (   0.0000000000,   0.0000000000,   4.5997080000)


Analysis of symmetry for initial positions (statically):
=====================================================================
 Subroutine PRICEL returns:
 Original cell was already a primitive cell.
 

 Routine SETGRP: Setting up the symmetry group for a 
 hexagonal supercell.


 Subroutine GETGRP returns: Found 12 space group operations
 (whereof 12 operations were pure point group operations)
 out of a pool of 24 trial point group operations.


The static configuration has the point symmetry D_3d.


Analysis of symmetry for dynamics (positions and initial velocities):
=====================================================================
 Subroutine PRICEL returns:
 Original cell was already a primitive cell.
 

 Routine SETGRP: Setting up the symmetry group for a 
 hexagonal supercell.


 Subroutine GETGRP returns: Found 12 space group operations
 (whereof 12 operations were pure point group operations)
 out of a pool of 24 trial point group operations.


The dynamic configuration has the point symmetry D_3d.


Analysis of structural, dynamic, and magnetic symmetry:
=====================================================================
 Subroutine PRICEL returns:
 Original cell was already a primitive cell.
 

 Routine SETGRP: Setting up the symmetry group for a 
 hexagonal supercell.


 Subroutine GETGRP returns: Found 12 space group operations
 (whereof 12 operations were pure point group operations)
 out of a pool of 24 trial point group operations.


The magnetic configuration has the point symmetry D_3d.


 Subroutine INISYM returns: Found 12 space group operations
 (whereof 12 operations are pure point group operations),
 and found     1 'primitive' translations

 
 
 KPOINTS: pymatgen 4.7.6+ generated KPOINTS with g

Automatic generation of k-mesh.
Space group operators:
 irot       det(A)        alpha          n_x          n_y          n_z        tau_x        tau_y        tau_z
    1     1.000000     0.000001     1.000000     0.000000     0.000000     0.000000     0.000000     0.000000
    2    -1.000000     0.000001     1.000000     0.000000     0.000000     0.000000     0.000000     0.000000
    3     1.000000   120.000000     0.000000     0.000000    -1.000000     0.000000     0.000000     0.000000
    4    -1.000000   120.000000     0.000000     0.000000    -1.000000     0.000000     0.000000     0.000000
    5     1.000000   120.000000     0.000000     0.000000     1.000000     0.000000     0.000000     0.000000
    6    -1.000000   120.000000     0.000000     0.000000     1.000000     0.000000     0.000000     0.000000
    7     1.000000   179.999999    -0.000000     1.000000     0.000000     0.000000     0.000000     0.000000
    8    -1.000000   179.999999    -0.000000     1.000000     0.000000     0.000000     0.000000     0.000000
    9     1.000000   180.000000     0.866025     0.500000     0.000000     0.000000     0.000000     0.000000
   10    -1.000000   180.000000     0.866025     0.500000     0.000000     0.000000     0.000000     0.000000
   11     1.000000   180.000000     0.866025    -0.500000     0.000000     0.000000     0.000000     0.000000
   12    -1.000000   180.000000     0.866025    -0.500000     0.000000     0.000000     0.000000     0.000000
 
 Subroutine IBZKPT returns following result:
 ===========================================
 
 Found     24 irreducible k-points:
 
 Following reciprocal coordinates:
            Coordinates               Weight
  0.000000  0.000000  0.000000      1.000000
  0.200000 -0.000000  0.000000      6.000000
  0.400000 -0.000000  0.000000      6.000000
  0.200000  0.200000  0.000000      6.000000
  0.400000  0.200000  0.000000      6.000000
  0.000000  0.000000  0.166667      2.000000
  0.200000 -0.000000  0.166667     12.000000
  0.400000 -0.000000  0.166667     12.000000
  0.200000  0.200000  0.166667      6.000000
  0.400000  0.200000  0.166667      6.000000
 -0.200000  0.400000  0.166667      6.000000
 -0.400000 -0.400000  0.166667      6.000000
  0.000000  0.000000  0.333333      2.000000
  0.200000 -0.000000  0.333333     12.000000
  0.400000 -0.000000  0.333333     12.000000
  0.200000  0.200000  0.333333      6.000000
  0.400000  0.200000  0.333333      6.000000
 -0.200000  0.400000  0.333333      6.000000
 -0.400000 -0.400000  0.333333      6.000000
  0.000000  0.000000  0.500000      1.000000
  0.200000 -0.000000  0.500000      6.000000
  0.400000 -0.000000  0.500000      6.000000
  0.200000  0.200000  0.500000      6.000000
  0.400000  0.200000  0.500000      6.000000
 
 Following cartesian coordinates:
            Coordinates               Weight
  0.000000  0.000000  0.000000      1.000000
  0.038654 -0.022317  0.000000      6.000000
  0.077308 -0.044634  0.000000      6.000000
  0.077308  0.000000  0.000000      6.000000
  0.115962 -0.022317  0.000000      6.000000
  0.000000  0.000000  0.036234      2.000000
  0.038654 -0.022317  0.036234     12.000000
  0.077308 -0.044634  0.036234     12.000000
  0.077308  0.000000  0.036234      6.000000
  0.115962 -0.022317  0.036234      6.000000
  0.038654  0.066951  0.036234      6.000000
 -0.154616 -0.000000  0.036234      6.000000
  0.000000  0.000000  0.072468      2.000000
  0.038654 -0.022317  0.072468     12.000000
  0.077308 -0.044634  0.072468     12.000000
  0.077308  0.000000  0.072468      6.000000
  0.115962 -0.022317  0.072468      6.000000
  0.038654  0.066951  0.072468      6.000000
 -0.154616 -0.000000  0.072468      6.000000
  0.000000  0.000000  0.108703      1.000000
  0.038654 -0.022317  0.108703      6.000000
  0.077308 -0.044634  0.108703      6.000000
  0.077308  0.000000  0.108703      6.000000
  0.115962 -0.022317  0.108703      6.000000
 
 
 Subroutine IBZKPT_HF returns following result:
 ==============================================
 
 Found    150 k-points in 1st BZ
 the following    150 k-points will be used (e.g. in the exchange kernel)
 Following reciprocal coordinates:   # in IRBZ
  0.000000  0.000000  0.000000    0.00666667   1 t-inv F
  0.200000 -0.000000  0.000000    0.00666667   2 t-inv F
  0.400000 -0.000000  0.000000    0.00666667   3 t-inv F
  0.200000  0.200000  0.000000    0.00666667   4 t-inv F
  0.400000  0.200000  0.000000    0.00666667   5 t-inv F
  0.000000  0.000000  0.166667    0.00666667   6 t-inv F
  0.200000 -0.000000  0.166667    0.00666667   7 t-inv F
  0.400000 -0.000000  0.166667    0.00666667   8 t-inv F
  0.200000  0.200000  0.166667    0.00666667   9 t-inv F
  0.400000  0.200000  0.166667    0.00666667  10 t-inv F
 -0.200000  0.400000  0.166667    0.00666667  11 t-inv F
 -0.400000 -0.400000  0.166667    0.00666667  12 t-inv F
  0.000000  0.000000  0.333333    0.00666667  13 t-inv F
  0.200000 -0.000000  0.333333    0.00666667  14 t-inv F
  0.400000 -0.000000  0.333333    0.00666667  15 t-inv F
  0.200000  0.200000  0.333333    0.00666667  16 t-inv F
  0.400000  0.200000  0.333333    0.00666667  17 t-inv F
 -0.200000  0.400000  0.333333    0.00666667  18 t-inv F
 -0.400000 -0.400000  0.333333    0.00666667  19 t-inv F
  0.000000  0.000000  0.500000    0.00666667  20 t-inv F
  0.200000 -0.000000  0.500000    0.00666667  21 t-inv F
  0.400000 -0.000000  0.500000    0.00666667  22 t-inv F
  0.200000  0.200000  0.500000    0.00666667  23 t-inv F
  0.400000  0.200000  0.500000    0.00666667  24 t-inv F
 -0.200000  0.000000  0.000000    0.00666667   2 t-inv F
 -0.200000  0.200000  0.000000    0.00666667   2 t-inv F
  0.200000 -0.200000  0.000000    0.00666667   2 t-inv F
 -0.000000 -0.200000  0.000000    0.00666667   2 t-inv F
  0.000000  0.200000  0.000000    0.00666667   2 t-inv F
 -0.400000  0.000000  0.000000    0.00666667   3 t-inv F
 -0.400000  0.400000  0.000000    0.00666667   3 t-inv F
  0.400000 -0.400000  0.000000    0.00666667   3 t-inv F
 -0.000000 -0.400000  0.000000    0.00666667   3 t-inv F
  0.000000  0.400000  0.000000    0.00666667   3 t-inv F
 -0.200000 -0.200000  0.000000    0.00666667   4 t-inv F
 -0.400000  0.200000  0.000000    0.00666667   4 t-inv F
  0.400000 -0.200000  0.000000    0.00666667   4 t-inv F
  0.200000 -0.400000  0.000000    0.00666667   4 t-inv F
 -0.200000  0.400000  0.000000    0.00666667   4 t-inv F
 -0.400000 -0.200000  0.000000    0.00666667   5 t-inv F
 -0.600000  0.400000  0.000000    0.00666667   5 t-inv F
  0.600000 -0.400000  0.000000    0.00666667   5 t-inv F
  0.200000 -0.600000  0.000000    0.00666667   5 t-inv F
 -0.200000  0.600000  0.000000    0.00666667   5 t-inv F
  0.000000  0.000000 -0.166667    0.00666667   6 t-inv F
 -0.200000  0.000000 -0.166667    0.00666667   7 t-inv F
 -0.200000  0.200000  0.166667    0.00666667   7 t-inv F
  0.200000 -0.200000 -0.166667    0.00666667   7 t-inv F
 -0.000000 -0.200000  0.166667    0.00666667   7 t-inv F
  0.000000  0.200000 -0.166667    0.00666667   7 t-inv F
  0.000000 -0.200000 -0.166667    0.00666667   7 t-inv F
 -0.000000  0.200000  0.166667    0.00666667   7 t-inv F
 -0.200000  0.200000 -0.166667    0.00666667   7 t-inv F
  0.200000 -0.200000  0.166667    0.00666667   7 t-inv F
  0.200000  0.000000 -0.166667    0.00666667   7 t-inv F
 -0.200000 -0.000000  0.166667    0.00666667   7 t-inv F
 -0.400000  0.000000 -0.166667    0.00666667   8 t-inv F
 -0.400000  0.400000  0.166667    0.00666667   8 t-inv F
  0.400000 -0.400000 -0.166667    0.00666667   8 t-inv F
 -0.000000 -0.400000  0.166667    0.00666667   8 t-inv F
  0.000000  0.400000 -0.166667    0.00666667   8 t-inv F
  0.000000 -0.400000 -0.166667    0.00666667   8 t-inv F
 -0.000000  0.400000  0.166667    0.00666667   8 t-inv F
 -0.400000  0.400000 -0.166667    0.00666667   8 t-inv F
  0.400000 -0.400000  0.166667    0.00666667   8 t-inv F
  0.400000  0.000000 -0.166667    0.00666667   8 t-inv F
 -0.400000 -0.000000  0.166667    0.00666667   8 t-inv F
 -0.200000 -0.200000 -0.166667    0.00666667   9 t-inv F
 -0.400000  0.200000  0.166667    0.00666667   9 t-inv F
  0.400000 -0.200000 -0.166667    0.00666667   9 t-inv F
  0.200000 -0.400000  0.166667    0.00666667   9 t-inv F
 -0.200000  0.400000 -0.166667    0.00666667   9 t-inv F
 -0.400000 -0.200000 -0.166667    0.00666667  10 t-inv F
 -0.600000  0.400000  0.166667    0.00666667  10 t-inv F
  0.600000 -0.400000 -0.166667    0.00666667  10 t-inv F
  0.200000 -0.600000  0.166667    0.00666667  10 t-inv F
 -0.200000  0.600000 -0.166667    0.00666667  10 t-inv F
  0.200000 -0.400000 -0.166667    0.00666667  11 t-inv F
 -0.200000 -0.200000  0.166667    0.00666667  11 t-inv F
  0.200000  0.200000 -0.166667    0.00666667  11 t-inv F
  0.400000 -0.200000  0.166667    0.00666667  11 t-inv F
 -0.400000  0.200000 -0.166667    0.00666667  11 t-inv F
  0.400000  0.400000 -0.166667    0.00666667  12 t-inv F
  0.800000 -0.400000  0.166667    0.00666667  12 t-inv F
 -0.800000  0.400000 -0.166667    0.00666667  12 t-inv F
 -0.400000  0.800000  0.166667    0.00666667  12 t-inv F
  0.400000 -0.800000 -0.166667    0.00666667  12 t-inv F
  0.000000  0.000000 -0.333333    0.00666667  13 t-inv F
 -0.200000  0.000000 -0.333333    0.00666667  14 t-inv F
 -0.200000  0.200000  0.333333    0.00666667  14 t-inv F
  0.200000 -0.200000 -0.333333    0.00666667  14 t-inv F
 -0.000000 -0.200000  0.333333    0.00666667  14 t-inv F
  0.000000  0.200000 -0.333333    0.00666667  14 t-inv F
  0.000000 -0.200000 -0.333333    0.00666667  14 t-inv F
 -0.000000  0.200000  0.333333    0.00666667  14 t-inv F
 -0.200000  0.200000 -0.333333    0.00666667  14 t-inv F
  0.200000 -0.200000  0.333333    0.00666667  14 t-inv F
  0.200000  0.000000 -0.333333    0.00666667  14 t-inv F
 -0.200000 -0.000000  0.333333    0.00666667  14 t-inv F
 -0.400000  0.000000 -0.333333    0.00666667  15 t-inv F
 -0.400000  0.400000  0.333333    0.00666667  15 t-inv F
  0.400000 -0.400000 -0.333333    0.00666667  15 t-inv F
 -0.000000 -0.400000  0.333333    0.00666667  15 t-inv F
  0.000000  0.400000 -0.333333    0.00666667  15 t-inv F
  0.000000 -0.400000 -0.333333    0.00666667  15 t-inv F
 -0.000000  0.400000  0.333333    0.00666667  15 t-inv F
 -0.400000  0.400000 -0.333333    0.00666667  15 t-inv F
  0.400000 -0.400000  0.333333    0.00666667  15 t-inv F
  0.400000  0.000000 -0.333333    0.00666667  15 t-inv F
 -0.400000 -0.000000  0.333333    0.00666667  15 t-inv F
 -0.200000 -0.200000 -0.333333    0.00666667  16 t-inv F
 -0.400000  0.200000  0.333333    0.00666667  16 t-inv F
  0.400000 -0.200000 -0.333333    0.00666667  16 t-inv F
  0.200000 -0.400000  0.333333    0.00666667  16 t-inv F
 -0.200000  0.400000 -0.333333    0.00666667  16 t-inv F
 -0.400000 -0.200000 -0.333333    0.00666667  17 t-inv F
 -0.600000  0.400000  0.333333    0.00666667  17 t-inv F
  0.600000 -0.400000 -0.333333    0.00666667  17 t-inv F
  0.200000 -0.600000  0.333333    0.00666667  17 t-inv F
 -0.200000  0.600000 -0.333333    0.00666667  17 t-inv F
  0.200000 -0.400000 -0.333333    0.00666667  18 t-inv F
 -0.200000 -0.200000  0.333333    0.00666667  18 t-inv F
  0.200000  0.200000 -0.333333    0.00666667  18 t-inv F
  0.400000 -0.200000  0.333333    0.00666667  18 t-inv F
 -0.400000  0.200000 -0.333333    0.00666667  18 t-inv F
  0.400000  0.400000 -0.333333    0.00666667  19 t-inv F
  0.800000 -0.400000  0.333333    0.00666667  19 t-inv F
 -0.800000  0.400000 -0.333333    0.00666667  19 t-inv F
 -0.400000  0.800000  0.333333    0.00666667  19 t-inv F
  0.400000 -0.800000 -0.333333    0.00666667  19 t-inv F
 -0.200000  0.000000 -0.500000    0.00666667  21 t-inv F
 -0.200000  0.200000  0.500000    0.00666667  21 t-inv F
  0.200000 -0.200000 -0.500000    0.00666667  21 t-inv F
 -0.000000 -0.200000  0.500000    0.00666667  21 t-inv F
  0.000000  0.200000 -0.500000    0.00666667  21 t-inv F
 -0.400000  0.000000 -0.500000    0.00666667  22 t-inv F
 -0.400000  0.400000  0.500000    0.00666667  22 t-inv F
  0.400000 -0.400000 -0.500000    0.00666667  22 t-inv F
 -0.000000 -0.400000  0.500000    0.00666667  22 t-inv F
  0.000000  0.400000 -0.500000    0.00666667  22 t-inv F
 -0.200000 -0.200000 -0.500000    0.00666667  23 t-inv F
 -0.400000  0.200000  0.500000    0.00666667  23 t-inv F
  0.400000 -0.200000 -0.500000    0.00666667  23 t-inv F
  0.200000 -0.400000  0.500000    0.00666667  23 t-inv F
 -0.200000  0.400000 -0.500000    0.00666667  23 t-inv F
 -0.400000 -0.200000 -0.500000    0.00666667  24 t-inv F
 -0.600000  0.400000  0.500000    0.00666667  24 t-inv F
  0.600000 -0.400000 -0.500000    0.00666667  24 t-inv F
  0.200000 -0.600000  0.500000    0.00666667  24 t-inv F
 -0.200000  0.600000 -0.500000    0.00666667  24 t-inv F


--------------------------------------------------------------------------------------------------------




 Dimension of arrays:
   k-points           NKPTS =     24   k-points in BZ     NKDIM =    150   number of bands    NBANDS=     42
   number of dos      NEDOS =    301   number of ions     NIONS =     12
   non local maximal  LDIM  =      6   non local SUM 2l+1 LMDIM =     18
   total plane-waves  NPLWV =  21952
   max r-space proj   IRMAX =   3069   max aug-charges    IRDMAX=  15083
   dimension x,y,z NGX =    28 NGY =   28 NGZ =   28
   dimension x,y,z NGXF=    56 NGYF=   56 NGZF=   56
   support grid    NGXF=    56 NGYF=   56 NGZF=   56
   ions per type =               4   2   6
   NGX,Y,Z   is equivalent  to a cutoff of   9.00,  9.00, 10.12 a.u.
   NGXF,Y,Z  is equivalent  to a cutoff of  17.99, 17.99, 20.24 a.u.

 SYSTEM =  unknown system                          
 POSCAR =  Li4 Ir2 O6                              

 Startparameter for this run:
   NWRITE =      2    write-flag & timer
   PREC   = normal    normal or accurate (medium, high low for compatibility)
   ISTART =      0    job   : 0-new  1-cont  2-samecut
   ICHARG =      2    charge: 1-file 2-atom 10-const
   ISPIN  =      2    spin polarized calculation?
   LNONCOLLINEAR =      F non collinear calculations
   LSORBIT =      F    spin-orbit coupling
   INIWAV =      1    electr: 0-lowe 1-rand  2-diag
   LASPH  =      T    aspherical Exc in radial PAW
   METAGGA=      F    non-selfconsistent MetaGGA calc.

 Electronic Relaxation 1
   ENCUT  =  500.0 eV  36.75 Ry    6.06 a.u.   9.43  9.43  8.39*2*pi/ulx,y,z
   ENINI  =  500.0     initial cutoff
   ENAUG  =  628.9 eV  augmentation charge cutoff
   NELM   =    100;   NELMIN=  5; NELMDL= -5     # of ELM steps 
   EDIFF  = 0.1E-05   stopping-criterion for ELM
   LREAL  =      T    real-space projection
   NLSPLINE    = F    spline interpolate recip. space projectors
   LCOMPAT=      F    compatible to vasp.4.4
   GGA_COMPAT  = T    GGA compatible to vasp.4.4-vasp.4.6
   LMAXPAW     = -100 max onsite density
   LMAXMIX     =    2 max onsite mixed and CHGCAR
   VOSKOWN=      0    Vosko Wilk Nusair interpolation
   ROPT   =   -0.00050  -0.00050  -0.00050
 Ionic relaxation
   EDIFFG = 0.1E-02   stopping-criterion for IOM
   NSW    =    300    number of steps for IOM
   NBLOCK =      1;   KBLOCK =    300    inner block; outer block 
   IBRION =      2    ionic relax: 0-MD 1-quasi-New 2-CG
   NFREE  =      1    steps in history (QN), initial steepest desc. (CG)
   ISIF   =      3    stress and relaxation
   IWAVPR =     11    prediction:  0-non 1-charg 2-wave 3-comb
   ISYM   =      3    0-nonsym 1-usesym 2-fastsym
   LCORR  =      T    Harris-Foulkes like correction to forces

   POTIM  = 0.5000    time-step for ionic-motion
   TEIN   =    0.0    initial temperature
   TEBEG  =    0.0;   TEEND  =   0.0 temperature during run
   SMASS  =  -3.00    Nose mass-parameter (am)
   estimated Nose-frequenzy (Omega)   =  0.10E-29 period in steps =****** mass=  -0.612E-27a.u.
   SCALEE = 1.0000    scale energy and forces
   NPACO  =    256;   APACO  = 16.0  distance and # of slots for P.C.
   PSTRESS=    0.0 pullay stress

  Mass of Ions in am
   POMASS =   7.01192.22 16.00
  Ionic Valenz
   ZVAL   =   3.00  9.00  6.00
  Atomic Wigner-Seitz radii
   RWIGS  =  -1.00 -1.00 -1.00
  virtual crystal weights 
   VCA    =   1.00  1.00  1.00
   NELECT =      66.0000    total number of electrons
   NUPDOWN=      -1.0000    fix difference up-down

 DOS related values:
   EMIN   =  10.00;   EMAX   =-10.00  energy-range for DOS
   EFERMI =   0.00
   ISMEAR =     0;   SIGMA  =   0.05  broadening in eV -4-tet -1-fermi 0-gaus

 Electronic relaxation 2 (details)
   IALGO  =     58    algorithm
   LDIAG  =      T    sub-space diagonalisation (order eigenvalues)
   LSUBROT=      F    optimize rotation matrix (better conditioning)
   TURBO    =      0    0=normal 1=particle mesh
   IRESTART =      0    0=no restart 2=restart with 2 vectors
   NREBOOT  =      0    no. of reboots
   NMIN     =      0    reboot dimension
   EREF     =   0.00    reference energy to select bands
   IMIX   =      4    mixing-type and parameters
     AMIX     =   0.40;   BMIX     =  1.00
     AMIX_MAG =   1.60;   BMIX_MAG =  1.00
     AMIN     =   0.10
     WC   =   100.;   INIMIX=   1;  MIXPRE=   1;  MAXMIX= -45

 Intra band minimization:
   WEIMIN = 0.0010     energy-eigenvalue tresh-hold
   EBREAK =  0.60E-08  absolut break condition
   DEPER  =   0.30     relativ break condition  

   TIME   =   0.40     timestep for ELM

  volume/ion in A,a.u.               =       8.89        59.97
  Fermi-wavevector in a.u.,A,eV,Ry     =   1.395119  2.636394 26.481813  1.946358
  Thomas-Fermi vector in A             =   2.518602
 
 Write flags
   LWAVE        =      F    write WAVECAR
   LDOWNSAMPLE  =      F    k-point downsampling of WAVECAR
   LCHARG       =      F    write CHGCAR
   LVTOT        =      F    write LOCPOT, total local potential
   LVHAR        =      F    write LOCPOT, Hartree potential only
   LELF         =      F    write electronic localiz. function (ELF)
   LORBIT       =     11    0 simple, 1 ext, 2 COOP (PROOUT), +10 PAW based schemes


 Dipole corrections
   LMONO  =      F    monopole corrections only (constant potential shift)
   LDIPOL =      F    correct potential (dipole corrections)
   IDIPOL =      0    1-x, 2-y, 3-z, 4-all directions 
   EPSILON=  1.0000000 bulk dielectric constant

 Exchange correlation treatment:
   GGA     =    --    GGA type
   LEXCH   =     8    internal setting for exchange type
   VOSKOWN=      0    Vosko Wilk Nusair interpolation
   EXXOEP  =     0    0=HF, 1=EXX-LHF (local Hartree Fock) 2=EXX OEP
   LHFCALC =     T    Hartree Fock is set to
   LSYMGRAD=     F    symmetrize gradient (conserves proper symmetry)
   PRECFOCK=fast      Normal, Fast or Accurate (Low or Medium for compatibility)
   LRHFCALC=     F    long range Hartree Fock
   LRSCOR  =     F    long range correlation only (use DFT for short range part)
   LTHOMAS =     F    Thomas Fermi screening in HF
   LMODELHF=     F    short range full HF, long range fraction AEXX
   ENCUT4O =  -1.0   cutoff for four orbital integrals eV
   LMAXFOCK=     4    L truncation for augmentation on plane wave grid
   LMAXFOCKAE=  -1    L truncation for all-electron charge restoration on plane wave grid
   NMAXFOCKAE=   1    number of basis functions for all-electron charge restoration
   LFOCKAEDFT=     F  apply the AE augmentation even for DFT
   NKREDX  =     1    reduce k-point grid by
   NKREDY  =     1    reduce k-point grid by
   NKREDZ  =     1    reduce k-point grid by
   SHIFTRED=     F    shift reduced grid of Gamma
   HFKIDENT=     F    idential grid for each k-point
   ODDONLY =     F    use only odd q-grid points
   EVENONLY=     F    use only even q-grid points
   HFALPHA =   -1.0000 decay constant for conv. correction
   MCALPHA =    0.0000 extent of test-charge in conv. correction in multipole expansion
   AEXX    =    0.2500 exact exchange contribution
   HFSCREEN=    0.2000 screening length (either q_TF or 0.3 A-1)
   HFSCREENC=   0.2000 screening length for correlation (either q_TF or 0.3 A-1)
   HFRCUT  =    0.0000 spherical cutoff for potential kernel
   ALDAX   =    0.7500 LDA exchange part
   AGGAX   =    0.7500 GGA exchange part
   ALDAC   =    1.0000 LDA correlation
   AGGAC   =    1.0000 GGA correlation
   ENCUTFOCK=  -1.0 apply spherical cutoff to Coloumb kernel
   NBANDSGWLOW=     1    first orbital included in HF term
   NBLOCK_FOCK=    64    blocking factor in FOCK_ACC
 Linear response parameters
   LEPSILON=     F    determine dielectric tensor
   LRPA    =     F    only Hartree local field effects (RPA)
   LNABLA  =     F    use nabla operator in PAW spheres
   LVEL    =     F    velocity operator in full k-point grid
   LINTERFAST=   F  fast interpolation
   KINTER  =     0    interpolate to denser k-point grid
   CSHIFT  =0.1000    complex shift for real part using Kramers Kronig
   OMEGAMAX=  -1.0    maximum frequency
   DEG_THRESHOLD= 0.2000000E-02 threshold for treating states as degnerate
   RTIME   =   -0.100 relaxation time in fs
  (WPLASMAI=    0.000 imaginary part of plasma frequency in eV, 0.658/RTIME)
   DFIELD  = 0.0000000 0.0000000 0.0000000 field for delta impulse in time
 
 Orbital magnetization related:
   ORBITALMAG=     F  switch on orbital magnetization
   LCHIMAG   =     F  perturbation theory with respect to B field
   DQ        =  0.001000  dq finite difference perturbation B field
   LLRAUG    =     F  two centre corrections for induced B field



--------------------------------------------------------------------------------------------------------


 conjugate gradient relaxation of ions
 charge density and potential will be updated during run
 spin polarized calculation
 Conjugate gradient for all bands (Freysoldt, et al. PRB 79, 241103 (2009))
 preconditioned conjugated gradient                                        
 perform sub-space diagonalisation
    before iterative eigenvector-optimisation
 modified Broyden-mixing scheme, WC =      100.0
 initial mixing is a Kerker type mixing with AMIX =  0.4000 and BMIX =      1.0000
 Hartree-type preconditioning will be used
 using additional bands            9
 real space projection scheme for non local part
 use partial core corrections
 no Harris-corrections to forces 
 use gradient corrections 
 use of overlap-Matrix (Vanderbilt PP)
 Gauss-broadening in eV      SIGMA  =   0.05


--------------------------------------------------------------------------------------------------------


  energy-cutoff  :      500.00
  volume of cell :      106.64
      direct lattice vectors                 reciprocal lattice vectors
     2.587061000 -4.480921000  0.000000000     0.193269505 -0.111584203  0.000000000
     2.587061000  4.480921000  0.000000000     0.193269505  0.111584203  0.000000000
     0.000000000  0.000000000  4.599708000     0.000000000  0.000000000  0.217405105

  length of vectors
     5.174121918  5.174121918  4.599708000     0.223168403  0.223168403  0.217405105


 
 k-points in units of 2pi/SCALE and weight: pymatgen 4.7.6+ generated KPOINTS with g
   0.00000000  0.00000000  0.00000000       0.007
   0.03865390 -0.02231684  0.00000000       0.040
   0.07730780 -0.04463368  0.00000000       0.040
   0.07730780  0.00000000  0.00000000       0.040
   0.11596170 -0.02231684  0.00000000       0.040
   0.00000000  0.00000000  0.03623418       0.013
   0.03865390 -0.02231684  0.03623418       0.080
   0.07730780 -0.04463368  0.03623418       0.080
   0.07730780  0.00000000  0.03623418       0.040
   0.11596170 -0.02231684  0.03623418       0.040
   0.03865390  0.06695052  0.03623418       0.040
  -0.15461560 -0.00000000  0.03623418       0.040
   0.00000000  0.00000000  0.07246837       0.013
   0.03865390 -0.02231684  0.07246837       0.080
   0.07730780 -0.04463368  0.07246837       0.080
   0.07730780  0.00000000  0.07246837       0.040
   0.11596170 -0.02231684  0.07246837       0.040
   0.03865390  0.06695052  0.07246837       0.040
  -0.15461560 -0.00000000  0.07246837       0.040
   0.00000000  0.00000000  0.10870255       0.007
   0.03865390 -0.02231684  0.10870255       0.040
   0.07730780 -0.04463368  0.10870255       0.040
   0.07730780  0.00000000  0.10870255       0.040
   0.11596170 -0.02231684  0.10870255       0.040
 
 k-points in reciprocal lattice and weights: pymatgen 4.7.6+ generated KPOINTS with g
   0.00000000  0.00000000  0.00000000       0.007
   0.20000000 -0.00000000  0.00000000       0.040
   0.40000000 -0.00000000  0.00000000       0.040
   0.20000000  0.20000000  0.00000000       0.040
   0.40000000  0.20000000  0.00000000       0.040
   0.00000000  0.00000000  0.16666667       0.013
   0.20000000 -0.00000000  0.16666667       0.080
   0.40000000 -0.00000000  0.16666667       0.080
   0.20000000  0.20000000  0.16666667       0.040
   0.40000000  0.20000000  0.16666667       0.040
  -0.20000000  0.40000000  0.16666667       0.040
  -0.40000000 -0.40000000  0.16666667       0.040
   0.00000000  0.00000000  0.33333333       0.013
   0.20000000 -0.00000000  0.33333333       0.080
   0.40000000 -0.00000000  0.33333333       0.080
   0.20000000  0.20000000  0.33333333       0.040
   0.40000000  0.20000000  0.33333333       0.040
  -0.20000000  0.40000000  0.33333333       0.040
  -0.40000000 -0.40000000  0.33333333       0.040
   0.00000000  0.00000000  0.50000000       0.007
   0.20000000 -0.00000000  0.50000000       0.040
   0.40000000 -0.00000000  0.50000000       0.040
   0.20000000  0.20000000  0.50000000       0.040
   0.40000000  0.20000000  0.50000000       0.040
 
 position of ions in fractional coordinates (direct lattice) 
   0.00000000  0.00000000  0.00000000
   0.00000000  0.00000000  0.50000000
   0.33333300  0.66666700  0.00000000
   0.66666700  0.33333300  0.00000000
   0.33333300  0.66666700  0.50000000
   0.66666700  0.33333300  0.50000000
   0.64359200  0.64359200  0.27559900
   0.35640800  0.00000000  0.27559900
   0.00000000  0.35640800  0.27559900
   0.64359200  0.00000000  0.72440100
   0.35640800  0.35640800  0.72440100
   0.00000000  0.64359200  0.72440100
 
 position of ions in cartesian coordinates  (Angst):
   0.00000000  0.00000000  0.00000000
   0.00000000  0.00000000  2.29985400
   2.58706100  1.49364332  0.00000000
   2.58706100 -1.49364332  0.00000000
   2.58706100  1.49364332  2.29985400
   2.58706100 -1.49364332  2.29985400
   3.33002353 -0.00000000  1.26767493
   0.92204924 -1.59703609  1.26767493
   0.92204924  1.59703609  1.26767493
   1.66501176 -2.88388491  3.33203307
   1.84409847  0.00000000  3.33203307
   1.66501176  2.88388491  3.33203307
 


--------------------------------------------------------------------------------------------------------


 k-point  1 :   0.0000 0.0000 0.0000  plane waves:    2717
 k-point  2 :   0.2000-0.0000 0.0000  plane waves:    2712
 k-point  3 :   0.4000-0.0000 0.0000  plane waves:    2706
 k-point  4 :   0.2000 0.2000 0.0000  plane waves:    2709
 k-point  5 :   0.4000 0.2000 0.0000  plane waves:    2696
 k-point  6 :   0.0000 0.0000 0.1667  plane waves:    2723
 k-point  7 :   0.2000-0.0000 0.1667  plane waves:    2718
 k-point  8 :   0.4000-0.0000 0.1667  plane waves:    2707
 k-point  9 :   0.2000 0.2000 0.1667  plane waves:    2706
 k-point 10 :   0.4000 0.2000 0.1667  plane waves:    2699
 k-point 11 :  -0.2000 0.4000 0.1667  plane waves:    2706
 k-point 12 :  -0.4000-0.4000 0.1667  plane waves:    2699
 k-point 13 :   0.0000 0.0000 0.3333  plane waves:    2693
 k-point 14 :   0.2000-0.0000 0.3333  plane waves:    2711
 k-point 15 :   0.4000-0.0000 0.3333  plane waves:    2701
 k-point 16 :   0.2000 0.2000 0.3333  plane waves:    2714
 k-point 17 :   0.4000 0.2000 0.3333  plane waves:    2698
 k-point 18 :  -0.2000 0.4000 0.3333  plane waves:    2714
 k-point 19 :  -0.4000-0.4000 0.3333  plane waves:    2698
 k-point 20 :   0.0000 0.0000 0.5000  plane waves:    2680
 k-point 21 :   0.2000-0.0000 0.5000  plane waves:    2710
 k-point 22 :   0.4000-0.0000 0.5000  plane waves:    2702
 k-point 23 :   0.2000 0.2000 0.5000  plane waves:    2698
 k-point 24 :   0.4000 0.2000 0.5000  plane waves:    2708

 maximum and minimum number of plane-waves per node :      2723     2680

 maximum number of plane-waves:      2723
 maximum index in each direction: 
   IXMAX=    9   IYMAX=    9   IZMAX=    8
   IXMIN=   -9   IYMIN=   -9   IZMIN=   -8


 serial   3D FFT for wavefunctions
 parallel 3D FFT for charge:
    minimum data exchange during FFTs selected (reduces bandwidth)


 FFT grid for exact exchange (Hartree Fock) 
  NGX = 24; NGY = 24; NGZ = 20

 
 Radii for the augmentation spheres in the non-local exchange
 for species   1 augmentation radius   0.956 (default was   0.708)
       energy cutoff for augmentation   2000.0
 for species   2 augmentation radius   1.727 (default was   1.279)
       energy cutoff for augmentation   2000.0
 for species   3 augmentation radius   0.974 (default was   0.722)
       energy cutoff for augmentation   2000.0
 Maximum index for augmentation-charges in exchange         2331
  SETUP_FOCK is finished

 total amount of memory used by VASP MPI-rank0    57585. kBytes
=======================================================================

   base      :      30000. kBytes
   nonlr-proj:       3929. kBytes
   fftplans  :        531. kBytes
   grid      :       2917. kBytes
   one-center:        373. kBytes
   HF        :        194. kBytes
   wavefun   :      19641. kBytes
 
     INWAV:  cpu time    0.0000: real time    0.0001
 Broyden mixing: mesh for mixing (old mesh)
   NGX = 19   NGY = 19   NGZ = 17
  (NGX  = 56   NGY  = 56   NGZ  = 56)
  gives a total of   6137 points

 initial charge density was supplied:
 charge density of overlapping atoms calculated
 number of electron      66.0000000 magnetization       0.0000000
 keeping initial charge density in first step


--------------------------------------------------------------------------------------------------------


 Maximum index for non-local projection operator         2946
 Maximum index for augmentation-charges         1058 (set IRDMAX)


--------------------------------------------------------------------------------------------------------


 First call to EWALD:  gamma=   0.374
 Maximum number of real-space cells 3x 3x 3
 Maximum number of reciprocal cells 3x 3x 3

    FEWALD:  cpu time    0.0030: real time    0.0030


--------------------------------------- Iteration      1(   1)  ---------------------------------------


    POTLOK:  cpu time    0.0620: real time    0.0729
    SETDIJ:  cpu time    1.5387: real time    1.5653
    TRIAL :  cpu time    0.2032: real time    0.2461
    CORREC:  cpu time    0.0011: real time    0.0012
    --------------------------------------------
      LOOP:  cpu time    1.8128: real time    1.8948

 eigenvalue-minimisations  :  4032
 total energy-change (2. order) : 0.7463565E+03  (-0.3410252E+04)
 number of electron      66.0000000 magnetization       0.0000000
 augmentation part       66.0000000 magnetization       0.0000000

 Free energy of the ion-electron system (eV)
  ---------------------------------------------------
  alpha Z        PSCENC =       261.80798060
  Ewald energy   TEWEN  =     -3598.61430277
  -Hartree energ DENC   =      -987.05595889
  -exchange      EXHF   =         0.00000000
  -V(xc)+E(xc)   XCENC  =       140.11530224
  PAW double counting   =      3541.65557489    -3534.10717382
  entropy T*S    EENTRO =        -0.00502099
  eigenvalues    EBANDS =       419.36414850
  atomic energy  EATOM  =      4503.19594114
  ---------------------------------------------------
  free energy    TOTEN  =       746.35649089 eV

  energy without entropy =      746.36151188  energy(sigma->0) =      746.35900139
  exchange ACFDT corr.  =         0.00000000  see jH, gK, PRB 81, 115126


--------------------------------------------------------------------------------------------------------




--------------------------------------- Iteration      1(   2)  ---------------------------------------


    TRIAL :  cpu time    0.1778: real time    0.1780
    CORREC:  cpu time    0.0005: real time    0.0005
    --------------------------------------------
      LOOP:  cpu time    0.1795: real time    0.1798

 eigenvalue-minimisations  :  4228
 total energy-change (2. order) :-0.5974588E+03  (-0.5809304E+03)
 number of electron      66.0000000 magnetization       0.0000000
 augmentation part       66.0000000 magnetization       0.0000000

 Free energy of the ion-electron system (eV)
  ---------------------------------------------------
  alpha Z        PSCENC =       261.80798060
  Ewald energy   TEWEN  =     -3598.61430277
  -Hartree energ DENC   =      -987.05595889
  -exchange      EXHF   =         0.00000000
  -V(xc)+E(xc)   XCENC  =       140.11530224
  PAW double counting   =      3541.65557489    -3534.10717382
  entropy T*S    EENTRO =        -0.00400097
  eigenvalues    EBANDS =      -178.09568440
  atomic energy  EATOM  =      4503.19594114
  ---------------------------------------------------
  free energy    TOTEN  =       148.89767802 eV

  energy without entropy =      148.90167899  energy(sigma->0) =      148.89967850
  exchange ACFDT corr.  =         0.00000000  see jH, gK, PRB 81, 115126


--------------------------------------------------------------------------------------------------------




--------------------------------------- Iteration      1(   3)  ---------------------------------------


    TRIAL :  cpu time    0.2522: real time    0.2527
    CORREC:  cpu time    0.0006: real time    0.0006
    --------------------------------------------
      LOOP:  cpu time    0.2531: real time    0.2536

 eigenvalue-minimisations  :  6328
 total energy-change (2. order) :-0.5790834E+02  (-0.5721877E+02)
 number of electron      66.0000000 magnetization       0.0000000
 augmentation part       66.0000000 magnetization       0.0000000

 Free energy of the ion-electron system (eV)
  ---------------------------------------------------
  alpha Z        PSCENC =       261.80798060
  Ewald energy   TEWEN  =     -3598.61430277
  -Hartree energ DENC   =      -987.05595889
  -exchange      EXHF   =         0.00000000
  -V(xc)+E(xc)   XCENC  =       140.11530224
  PAW double counting   =      3541.65557489    -3534.10717382
  entropy T*S    EENTRO =        -0.02106636
  eigenvalues    EBANDS =      -235.98695770
  atomic energy  EATOM  =      4503.19594114
  ---------------------------------------------------
  free energy    TOTEN  =        90.98933932 eV

  energy without entropy =       91.01040568  energy(sigma->0) =       90.99987250
  exchange ACFDT corr.  =         0.00000000  see jH, gK, PRB 81, 115126


--------------------------------------------------------------------------------------------------------




--------------------------------------- Iteration      1(   4)  ---------------------------------------


    TRIAL :  cpu time    0.2723: real time    0.2737
    CORREC:  cpu time    0.0006: real time    0.0006
    --------------------------------------------
      LOOP:  cpu time    0.2732: real time    0.2745

 eigenvalue-minimisations  :  6804
 total energy-change (2. order) :-0.4120215E+01  (-0.4109475E+01)
 number of electron      66.0000000 magnetization       0.0000000
 augmentation part       66.0000000 magnetization       0.0000000

 Free energy of the ion-electron system (eV)
  ---------------------------------------------------
  alpha Z        PSCENC =       261.80798060
  Ewald energy   TEWEN  =     -3598.61430277
  -Hartree energ DENC   =      -987.05595889
  -exchange      EXHF   =         0.00000000
  -V(xc)+E(xc)   XCENC  =       140.11530224
  PAW double counting   =      3541.65557489    -3534.10717382
  entropy T*S    EENTRO =        -0.02052650
  eigenvalues    EBANDS =      -240.10771219
  atomic energy  EATOM  =      4503.19594114
  ---------------------------------------------------
  free energy    TOTEN  =        86.86912469 eV

  energy without entropy =       86.88965120  energy(sigma->0) =       86.87938794
  exchange ACFDT corr.  =         0.00000000  see jH, gK, PRB 81, 115126


--------------------------------------------------------------------------------------------------------




--------------------------------------- Iteration      1(   5)  ---------------------------------------


    TRIAL :  cpu time    0.2503: real time    0.2511
    CORREC:  cpu time    0.0006: real time    0.0006
    CHARGE:  cpu time    0.0479: real time    0.0537
    --------------------------------------------
      LOOP:  cpu time    0.2992: real time    0.3058

 eigenvalue-minimisations  :  6062
 total energy-change (2. order) :-0.9846552E-01  (-0.9845532E-01)
 number of electron      66.0000026 magnetization      -0.0000115
 augmentation part       12.2102855 magnetization       0.0004203

 Free energy of the ion-electron system (eV)
  ---------------------------------------------------
  alpha Z        PSCENC =       261.80798060
  Ewald energy   TEWEN  =     -3598.61430277
  -Hartree energ DENC   =      -987.05595889
  -exchange      EXHF   =         0.00000000
  -V(xc)+E(xc)   XCENC  =       140.11530224
  PAW double counting   =      3541.65557489    -3534.10717382
  entropy T*S    EENTRO =        -0.02062353
  eigenvalues    EBANDS =      -240.20608068
  atomic energy  EATOM  =      4503.19594114
  ---------------------------------------------------
  free energy    TOTEN  =        86.77065917 eV

  energy without entropy =       86.79128270  energy(sigma->0) =       86.78097094
  exchange ACFDT corr.  =         0.00000000  see jH, gK, PRB 81, 115126


--------------------------------------------------------------------------------------------------------




--------------------------------------- Iteration      1(   6)  ---------------------------------------


    POTLOK:  cpu time    0.0556: real time    0.0556
    SETDIJ:  cpu time    1.4243: real time    1.4314
    TRIAL :  cpu time   81.9410: real time   83.6576
    CORREC:  cpu time   83.8213: real time   84.1309
    CHARGE:  cpu time    0.0426: real time    0.0427
    --------------------------------------------
      LOOP:  cpu time  167.2857: real time  169.3222

 eigenvalue-minimisations  :     0
 total energy-change (2. order) :-0.1566476E+03  (-0.1290431E+02)
 number of electron      66.0000021 magnetization      -0.0001026
 augmentation part       12.9725531 magnetization       0.0002517

 Free energy of the ion-electron system (eV)
  ---------------------------------------------------
  alpha Z        PSCENC =       261.80798060
  Ewald energy   TEWEN  =     -3598.61430277
  -Hartree energ DENC   =      -958.90627890
  -exchange      EXHF   =       180.85619797
  -V(xc)+E(xc)   XCENC  =       144.14445562
  PAW double counting   =      5793.85296513    -5795.18330945
  entropy T*S    EENTRO =        -0.01965012
  eigenvalues    EBANDS =      -601.00998060
  atomic energy  EATOM  =      4503.19594114
  ---------------------------------------------------
  free energy    TOTEN  =       -69.87695479 eV

  energy without entropy =      -69.85730466  energy(sigma->0) =      -69.86712972
  exchange ACFDT corr.  =        -0.05148127  see jH, gK, PRB 81, 115126


--------------------------------------------------------------------------------------------------------




--------------------------------------- Iteration      1(   7)  ---------------------------------------


    POTLOK:  cpu time    0.0560: real time    0.0560
    SETDIJ:  cpu time    1.7500: real time    1.7578
    TRIAL :  cpu time   82.1891: real time   82.4901
    CORREC:  cpu time   83.4609: real time   83.9544
    CHARGE:  cpu time    0.0432: real time    0.0432
    --------------------------------------------
      LOOP:  cpu time  167.5002: real time  168.3056

 eigenvalue-minimisations  :     0
 total energy-change (2. order) :-0.1296508E+02  (-0.1573859E+01)
 number of electron      66.0000022 magnetization      -0.0003150
 augmentation part       12.8891525 magnetization       0.0000215

 Free energy of the ion-electron system (eV)
  ---------------------------------------------------
  alpha Z        PSCENC =       261.80798060
  Ewald energy   TEWEN  =     -3598.61430277
  -Hartree energ DENC   =      -995.52641540
  -exchange      EXHF   =       179.97455448
  -V(xc)+E(xc)   XCENC  =       142.82962231
  PAW double counting   =      6382.83766772    -6386.75038898
  entropy T*S    EENTRO =        -0.02158449
  eigenvalues    EBANDS =      -572.57703955
  atomic energy  EATOM  =      4503.19594114
  ---------------------------------------------------
  free energy    TOTEN  =       -82.84203058 eV

  energy without entropy =      -82.82044609  energy(sigma->0) =      -82.83123833
  exchange ACFDT corr.  =        -0.12914857  see jH, gK, PRB 81, 115126


--------------------------------------------------------------------------------------------------------




--------------------------------------- Iteration      1(   8)  ---------------------------------------


    POTLOK:  cpu time    0.0561: real time    0.0561
    SETDIJ:  cpu time    1.7527: real time    1.7536
    TRIAL :  cpu time   82.3655: real time   82.6492
    CORREC:  cpu time   83.8965: real time   84.1646
    CHARGE:  cpu time    0.0463: real time    0.0463
    --------------------------------------------
      LOOP:  cpu time  168.1178: real time  168.6727

 eigenvalue-minimisations  :     0
 total energy-change (2. order) :-0.1579719E+01  (-0.2627943E+00)
 number of electron      66.0000022 magnetization      -0.0001002
 augmentation part       12.8455684 magnetization       0.0001193

 Free energy of the ion-electron system (eV)
  ---------------------------------------------------
  alpha Z        PSCENC =       261.80798060
  Ewald energy   TEWEN  =     -3598.61430277
  -Hartree energ DENC   =     -1026.61774712
  -exchange      EXHF   =       181.26332659
  -V(xc)+E(xc)   XCENC  =       143.90977538
  PAW double counting   =      6218.20309586    -6221.25669218
  entropy T*S    EENTRO =        -0.02543113
  eigenvalues    EBANDS =      -546.29154267
  atomic energy  EATOM  =      4503.19594114
  ---------------------------------------------------
  free energy    TOTEN  =       -84.42174967 eV

  energy without entropy =      -84.39631854  energy(sigma->0) =      -84.40903410
  exchange ACFDT corr.  =        -0.13819466  see jH, gK, PRB 81, 115126


--------------------------------------------------------------------------------------------------------




--------------------------------------- Iteration      1(   9)  ---------------------------------------


    POTLOK:  cpu time    0.0561: real time    0.0562
    SETDIJ:  cpu time    1.7418: real time    1.7538
    TRIAL :  cpu time   81.9433: real time   82.3052
    CORREC:  cpu time   82.0944: real time   83.3756
    CHARGE:  cpu time    0.0422: real time    0.0422
    --------------------------------------------
      LOOP:  cpu time  165.8785: real time  167.5354

 eigenvalue-minimisations  :     0
 total energy-change (2. order) :-0.2649104E+00  (-0.5081964E-01)
 number of electron      66.0000022 magnetization      -0.0000981
 augmentation part       12.8557798 magnetization       0.0001068

 Free energy of the ion-electron system (eV)
  ---------------------------------------------------
  alpha Z        PSCENC =       261.80798060
  Ewald energy   TEWEN  =     -3598.61430277
  -Hartree energ DENC   =     -1020.31297176
  -exchange      EXHF   =       180.98461493
  -V(xc)+E(xc)   XCENC  =       143.65273568
  PAW double counting   =      6082.30605717    -6085.22725074
  entropy T*S    EENTRO =        -0.02761401
  eigenvalues    EBANDS =      -552.45403319
  atomic energy  EATOM  =      4503.19594114
  ---------------------------------------------------
  free energy    TOTEN  =       -84.68666008 eV

  energy without entropy =      -84.65904607  energy(sigma->0) =      -84.67285307
  exchange ACFDT corr.  =        -0.27160375  see jH, gK, PRB 81, 115126


--------------------------------------------------------------------------------------------------------




--------------------------------------- Iteration      1(  10)  ---------------------------------------


    POTLOK:  cpu time    0.0558: real time    0.0559
    SETDIJ:  cpu time    1.7547: real time    1.7558
    TRIAL :  cpu time   82.3588: real time   82.6315
    CORREC:  cpu time   82.7755: real time   83.6873
    CHARGE:  cpu time    0.0435: real time    0.0435
    --------------------------------------------
      LOOP:  cpu time  166.9891: real time  168.1769

 eigenvalue-minimisations  :     0
 total energy-change (2. order) :-0.6894651E-01  (-0.2332794E-01)
 number of electron      66.0000023 magnetization       0.0020883
 augmentation part       12.8659264 magnetization       0.0009198

 Free energy of the ion-electron system (eV)
  ---------------------------------------------------
  alpha Z        PSCENC =       261.80798060
  Ewald energy   TEWEN  =     -3598.61430277
  -Hartree energ DENC   =     -1018.10317570
  -exchange      EXHF   =       180.86772482
  -V(xc)+E(xc)   XCENC  =       143.54169951
  PAW double counting   =      6034.32230841    -6037.23134365
  entropy T*S    EENTRO =        -0.03066719
  eigenvalues    EBANDS =      -554.51482493
  atomic energy  EATOM  =      4503.19594114
  ---------------------------------------------------
  free energy    TOTEN  =       -84.75560659 eV

  energy without entropy =      -84.72493940  energy(sigma->0) =      -84.74027299
  exchange ACFDT corr.  =        -0.31394393  see jH, gK, PRB 81, 115126


--------------------------------------------------------------------------------------------------------




--------------------------------------- Iteration      1(  11)  ---------------------------------------


    POTLOK:  cpu time    0.0561: real time    0.0562
    SETDIJ:  cpu time    1.7512: real time    1.7579
    TRIAL :  cpu time   81.5433: real time   83.4896
    CORREC:  cpu time   82.7766: real time   83.0434
    CHARGE:  cpu time    0.0432: real time    0.0433
    --------------------------------------------
      LOOP:  cpu time  166.1712: real time  168.3915

 eigenvalue-minimisations  :     0
 total energy-change (2. order) :-0.3003757E-01  (-0.1080788E-01)
 number of electron      66.0000023 magnetization       0.0082075
 augmentation part       12.8721686 magnetization       0.0032308

 Free energy of the ion-electron system (eV)
  ---------------------------------------------------
  alpha Z        PSCENC =       261.80798060
  Ewald energy   TEWEN  =     -3598.61430277
  -Hartree energ DENC   =     -1017.69925263
  -exchange      EXHF   =       180.83820595
  -V(xc)+E(xc)   XCENC  =       143.51661541
  PAW double counting   =      6017.63715608    -6020.54938687
  entropy T*S    EENTRO =        -0.03324653
  eigenvalues    EBANDS =      -554.88793387
  atomic energy  EATOM  =      4503.19594114
  ---------------------------------------------------
  free energy    TOTEN  =       -84.78564415 eV

  energy without entropy =      -84.75239763  energy(sigma->0) =      -84.76902089
  exchange ACFDT corr.  =        -0.47337375  see jH, gK, PRB 81, 115126


--------------------------------------------------------------------------------------------------------




--------------------------------------- Iteration      1(  12)  ---------------------------------------


    POTLOK:  cpu time    0.0561: real time    0.0561
    SETDIJ:  cpu time    1.7561: real time    1.7567
    TRIAL :  cpu time   81.9547: real time   82.2188
    CORREC:  cpu time   83.3728: real time   84.0411
    CHARGE:  cpu time    0.0434: real time    0.0434
    --------------------------------------------
      LOOP:  cpu time  167.1835: real time  168.1167

 eigenvalue-minimisations  :     0
 total energy-change (2. order) :-0.1373859E-01  (-0.6932968E-02)
 number of electron      66.0000023 magnetization       0.0127123
 augmentation part       12.8766226 magnetization       0.0049403

 Free energy of the ion-electron system (eV)
  ---------------------------------------------------
  alpha Z        PSCENC =       261.80798060
  Ewald energy   TEWEN  =     -3598.61430277
  -Hartree energ DENC   =     -1017.78155352
  -exchange      EXHF   =       180.83400501
  -V(xc)+E(xc)   XCENC  =       143.51766448
  PAW double counting   =      6011.73904885    -6014.65794343
  entropy T*S    EENTRO =        -0.03485024
  eigenvalues    EBANDS =      -554.80697656
  atomic energy  EATOM  =      4503.19594114
  ---------------------------------------------------
  free energy    TOTEN  =       -84.79938274 eV

  energy without entropy =      -84.76453250  energy(sigma->0) =      -84.78195762
  exchange ACFDT corr.  =        -0.76926740  see jH, gK, PRB 81, 115126


--------------------------------------------------------------------------------------------------------




--------------------------------------- Iteration      1(  13)  ---------------------------------------


    POTLOK:  cpu time    0.0561: real time    0.0561
    SETDIJ:  cpu time    1.7553: real time    1.7576
    TRIAL :  cpu time   82.2407: real time   82.9417
    CORREC:  cpu time   83.5280: real time   83.7545
    CHARGE:  cpu time    0.0434: real time    0.0434
    --------------------------------------------
      LOOP:  cpu time  167.6242: real time  168.5546

 eigenvalue-minimisations  :     0
 total energy-change (2. order) :-0.9676290E-02  (-0.6382115E-02)
 number of electron      66.0000023 magnetization       0.0147480
 augmentation part       12.8805745 magnetization       0.0057235

 Free energy of the ion-electron system (eV)
  ---------------------------------------------------
  alpha Z        PSCENC =       261.80798060
  Ewald energy   TEWEN  =     -3598.61430277
  -Hartree energ DENC   =     -1018.00880489
  -exchange      EXHF   =       180.84081584
  -V(xc)+E(xc)   XCENC  =       143.52729380
  PAW double counting   =      6009.30239456    -6012.23078806
  entropy T*S    EENTRO =        -0.03624566
  eigenvalues    EBANDS =      -554.59473900
  atomic energy  EATOM  =      4503.19594114
  ---------------------------------------------------
  free energy    TOTEN  =       -84.80905903 eV

  energy without entropy =      -84.77281337  energy(sigma->0) =      -84.79093620
  exchange ACFDT corr.  =        -1.40582327  see jH, gK, PRB 81, 115126


--------------------------------------------------------------------------------------------------------




--------------------------------------- Iteration      1(  14)  ---------------------------------------


    POTLOK:  cpu time    0.0561: real time    0.0561
    SETDIJ:  cpu time    1.7465: real time    1.7582
    TRIAL :  cpu time   82.0147: real time   82.2780
    CORREC:  cpu time   82.2664: real time   84.3227
    CHARGE:  cpu time    0.0433: real time    0.0433
    --------------------------------------------
      LOOP:  cpu time  166.1275: real time  168.4589

 eigenvalue-minimisations  :     0
 total energy-change (2. order) :-0.8453671E-02  (-0.4224817E-02)
 number of electron      66.0000023 magnetization       0.0150324
 augmentation part       12.8833858 magnetization       0.0058505

 Free energy of the ion-electron system (eV)
  ---------------------------------------------------
  alpha Z        PSCENC =       261.80798060
  Ewald energy   TEWEN  =     -3598.61430277
  -Hartree energ DENC   =     -1018.34405614
  -exchange      EXHF   =       180.85562464
  -V(xc)+E(xc)   XCENC  =       143.54337700
  PAW double counting   =      6008.21987959    -6011.16206058
  entropy T*S    EENTRO =        -0.03726567
  eigenvalues    EBANDS =      -554.28365053
  atomic energy  EATOM  =      4503.19594114
  ---------------------------------------------------
  free energy    TOTEN  =       -84.81751271 eV

  energy without entropy =      -84.78024704  energy(sigma->0) =      -84.79887987
  exchange ACFDT corr.  =        -1.79972843  see jH, gK, PRB 81, 115126


--------------------------------------------------------------------------------------------------------




--------------------------------------- Iteration      1(  15)  ---------------------------------------


    POTLOK:  cpu time    0.0560: real time    0.0560
    SETDIJ:  cpu time    1.7563: real time    1.7570
    TRIAL :  cpu time   82.0377: real time   82.3129
    CORREC:  cpu time   84.2783: real time   84.5410
    CHARGE:  cpu time    0.0433: real time    0.0433
    --------------------------------------------
      LOOP:  cpu time  168.1723: real time  168.7249

 eigenvalue-minimisations  :     0
 total energy-change (2. order) :-0.4428331E-02  (-0.1943411E-02)
 number of electron      66.0000023 magnetization       0.0150086
 augmentation part       12.8852239 magnetization       0.0058629

 Free energy of the ion-electron system (eV)
  ---------------------------------------------------
  alpha Z        PSCENC =       261.80798060
  Ewald energy   TEWEN  =     -3598.61430277
  -Hartree energ DENC   =     -1018.68441890
  -exchange      EXHF   =       180.87235951
  -V(xc)+E(xc)   XCENC  =       143.56092363
  PAW double counting   =      6008.01128115    -6010.96813009
  entropy T*S    EENTRO =        -0.03789618
  eigenvalues    EBANDS =      -553.96630963
  atomic energy  EATOM  =      4503.19594114
  ---------------------------------------------------
  free energy    TOTEN  =       -84.82194104 eV

  energy without entropy =      -84.78404486  energy(sigma->0) =      -84.80299295
  exchange ACFDT corr.  =        -1.89645365  see jH, gK, PRB 81, 115126


--------------------------------------------------------------------------------------------------------




--------------------------------------- Iteration      1(  16)  ---------------------------------------


    POTLOK:  cpu time    0.0561: real time    0.0561
    SETDIJ:  cpu time    1.7570: real time    1.7576
    TRIAL :  cpu time   81.7543: real time   82.3091
    CORREC:  cpu time   81.8982: real time   83.8300
    CHARGE:  cpu time    0.0433: real time    0.0433
    --------------------------------------------
      LOOP:  cpu time  165.5097: real time  167.9968

 eigenvalue-minimisations  :     0
 total energy-change (2. order) :-0.8546207E-03  (-0.8039355E-01)
 number of electron      66.0000023 magnetization       0.0264865
 augmentation part       12.8868577 magnetization       0.0103431

 Free energy of the ion-electron system (eV)
  ---------------------------------------------------
  alpha Z        PSCENC =       261.80798060
  Ewald energy   TEWEN  =     -3598.61430277
  -Hartree energ DENC   =     -1018.97503594
  -exchange      EXHF   =       180.88688020
  -V(xc)+E(xc)   XCENC  =       143.57624781
  PAW double counting   =      6008.22415720    -6011.19387517
  entropy T*S    EENTRO =        -0.03091236
  eigenvalues    EBANDS =      -553.69289254
  atomic energy  EATOM  =      4503.19594114
  ---------------------------------------------------
  free energy    TOTEN  =       -84.82279566 eV

  energy without entropy =      -84.79188330  energy(sigma->0) =      -84.80733948
  exchange ACFDT corr.  =        -1.66089711  see jH, gK, PRB 81, 115126


--------------------------------------------------------------------------------------------------------




--------------------------------------- Iteration      1(  17)  ---------------------------------------


    POTLOK:  cpu time    0.0561: real time    0.0561
    SETDIJ:  cpu time    1.7501: real time    1.7567
    TRIAL :  cpu time   82.1780: real time   82.4359
    CORREC:  cpu time   83.4297: real time   83.6824
    CHARGE:  cpu time    0.0433: real time    0.0433
    --------------------------------------------
      LOOP:  cpu time  167.4579: real time  167.9750

 eigenvalue-minimisations  :     0
 total energy-change (2. order) :-0.9505086E-01  (-0.7046149E-01)
 number of electron      66.0000023 magnetization       0.0466341
 augmentation part       12.8781769 magnetization       0.0180486

 Free energy of the ion-electron system (eV)
  ---------------------------------------------------
  alpha Z        PSCENC =       261.80798060
  Ewald energy   TEWEN  =     -3598.61430277
  -Hartree energ DENC   =     -1020.66855037
  -exchange      EXHF   =       180.98379283
  -V(xc)+E(xc)   XCENC  =       143.62130723
  PAW double counting   =      6019.20377352    -6022.23010361
  entropy T*S    EENTRO =        -0.01742539
  eigenvalues    EBANDS =      -552.18677273
  atomic energy  EATOM  =      4503.19594114
  ---------------------------------------------------
  free energy    TOTEN  =       -84.91784651 eV

  energy without entropy =      -84.90042112  energy(sigma->0) =      -84.90913382
  exchange ACFDT corr.  =        -0.17370037  see jH, gK, PRB 81, 115126


--------------------------------------------------------------------------------------------------------




--------------------------------------- Iteration      1(  18)  ---------------------------------------


    POTLOK:  cpu time    0.0561: real time    0.0562
    SETDIJ:  cpu time    1.7551: real time    1.7559
    TRIAL :  cpu time   81.5538: real time   82.2440
    CORREC:  cpu time   82.0961: real time   83.7414
    CHARGE:  cpu time    0.0433: real time    0.0433
    --------------------------------------------
      LOOP:  cpu time  165.5051: real time  167.8421

 eigenvalue-minimisations  :     0
 total energy-change (2. order) :-0.7766122E-01  (-0.1389843E-01)
 number of electron      66.0000023 magnetization       0.0757433
 augmentation part       12.8817629 magnetization       0.0285579

 Free energy of the ion-electron system (eV)
  ---------------------------------------------------
  alpha Z        PSCENC =       261.80798060
  Ewald energy   TEWEN  =     -3598.61430277
  -Hartree energ DENC   =     -1021.98358101
  -exchange      EXHF   =       181.10488474
  -V(xc)+E(xc)   XCENC  =       143.68508872
  PAW double counting   =      6010.61861325    -6013.73375213
  entropy T*S    EENTRO =        -0.01212759
  eigenvalues    EBANDS =      -551.05895489
  atomic energy  EATOM  =      4503.19594114
  ---------------------------------------------------
  free energy    TOTEN  =       -84.99550773 eV

  energy without entropy =      -84.98338014  energy(sigma->0) =      -84.98944393
  exchange ACFDT corr.  =        -0.04566557  see jH, gK, PRB 81, 115126


--------------------------------------------------------------------------------------------------------




[...]
     26       0.7677      1.00000
     27       1.0147      1.00000
     28       1.2157      1.00000
     29       2.9877      1.00000
     30       3.0093      1.00000
     31       3.4496      1.00000
     32       3.6600      1.00000
     33       5.3138      0.00000
     34       5.4754      0.00000
     35       8.6197      0.00000
     36       8.8365      0.00000
     37       8.9720      0.00000
     38       9.0218      0.00000
     39      13.3584      0.00000
     40      13.7718      0.00000
     41      13.8432      0.00000
     42      14.7287      0.00000

 k-point    20 :       0.0000    0.0000    0.5000
  band No.  band energies     occupation 
      1     -43.5839      1.00000
      2     -43.5612      1.00000
      3     -43.3614      1.00000
      4     -42.9364      1.00000
      5     -17.2545      1.00000
      6     -16.1404      1.00000
      7     -16.1146      1.00000
      8     -16.1146      1.00000
      9     -15.7128      1.00000
     10     -15.7127      1.00000
     11      -3.2146      1.00000
     12      -3.2146      1.00000
     13      -3.1559      1.00000
     14      -3.0118      1.00000
     15      -2.3733      1.00000
     16      -2.3732      1.00000
     17      -2.3048      1.00000
     18      -2.3047      1.00000
     19      -1.4233      1.00000
     20      -1.4232      1.00000
     21      -1.1004      1.00000
     22      -0.5467      1.00000
     23      -0.1895      1.00000
     24       0.1243      1.00000
     25       1.2323      1.00000
     26       1.2324      1.00000
     27       1.7481      1.00000
     28       1.7481      1.00000
     29       3.1018      1.00000
     30       3.1018      1.00000
     31       3.8461      1.00000
     32       3.8461      1.00000
     33       4.6054      0.00000
     34       4.9183      0.00000
     35       8.9824      0.00000
     36       8.9824      0.00000
     37       9.3281      0.00000
     38       9.3281      0.00000
     39      11.2837      0.00000
     40      13.0965      0.00000
     41      15.0717      0.00000
     42      15.0720      0.00000

 k-point    21 :       0.2000   -0.0000    0.5000
  band No.  band energies     occupation 
      1     -43.5818      1.00000
      2     -43.5630      1.00000
      3     -43.3618      1.00000
      4     -42.9364      1.00000
      5     -17.1147      1.00000
      6     -16.2092      1.00000
      7     -16.1831      1.00000
      8     -16.0806      1.00000
      9     -15.8110      1.00000
     10     -15.6706      1.00000
     11      -3.6273      1.00000
     12      -3.3484      1.00000
     13      -3.1966      1.00000
     14      -2.8312      1.00000
     15      -2.6051      1.00000
     16      -2.3362      1.00000
     17      -2.2918      1.00000
     18      -1.9651      1.00000
     19      -1.5803      1.00000
     20      -1.0663      1.00000
     21      -0.6445      1.00000
     22      -0.1013      1.00000
     23       0.0282      1.00000
     24       0.1657      1.00000
     25       0.7901      1.00000
     26       1.0328      1.00000
     27       1.2089      1.00000
     28       1.6071      1.00000
     29       2.9789      1.00000
     30       3.3621      1.00000
     31       3.4885      1.00000
     32       3.7907      1.00000
     33       4.9403      0.00000
     34       5.2623      0.00000
     35       8.5880      0.00000
     36       8.8846      0.00000
     37       9.1454      0.00000
     38       9.2072      0.00000
     39      11.8433      0.00000
     40      13.7535      0.00000
     41      14.4720      0.00000
     42      14.7903      0.00000

 k-point    22 :       0.4000   -0.0000    0.5000
  band No.  band energies     occupation 
      1     -43.5770      1.00000
      2     -43.5673      1.00000
      3     -43.3622      1.00000
      4     -42.9363      1.00000
      5     -16.7762      1.00000
      6     -16.3099      1.00000
      7     -16.3084      1.00000
      8     -16.0697      1.00000
      9     -16.0022      1.00000
     10     -15.6374      1.00000
     11      -4.0539      1.00000
     12      -3.4872      1.00000
     13      -3.1716      1.00000
     14      -2.7276      1.00000
     15      -2.5224      1.00000
     16      -2.3477      1.00000
     17      -1.8530      1.00000
     18      -1.6792      1.00000
     19      -1.5919      1.00000
     20      -0.9201      1.00000
     21      -0.7493      1.00000
     22      -0.7006      1.00000
     23       0.5030      1.00000
     24       0.6178      1.00000
     25       0.7523      1.00000
     26       1.0295      1.00000
     27       1.0439      1.00000
     28       1.4938      1.00000
     29       2.7144      1.00000
     30       2.8767      1.00000
     31       3.5824      1.00000
     32       3.6580      1.00000
     33       5.3078      0.00000
     34       5.6292      0.00000
     35       8.2772      0.00000
     36       8.7243      0.00000
     37       8.7828      0.00000
     38       8.9442      0.00000
     39      12.9950      0.00000
     40      13.8616      0.00000
     41      14.5902      0.00000
     42      14.8330      0.00000

 k-point    23 :       0.2000    0.2000    0.5000
  band No.  band energies     occupation 
      1     -43.5782      1.00000
      2     -43.5662      1.00000
      3     -43.3621      1.00000
      4     -42.9363      1.00000
      5     -16.8691      1.00000
      6     -16.3485      1.00000
      7     -16.1973      1.00000
      8     -16.0771      1.00000
      9     -15.9185      1.00000
     10     -15.6877      1.00000
     11      -3.7166      1.00000
     12      -3.6505      1.00000
     13      -2.9359      1.00000
     14      -2.8918      1.00000
     15      -2.7875      1.00000
     16      -2.4441      1.00000
     17      -2.3476      1.00000
     18      -1.6213      1.00000
     19      -1.1023      1.00000
     20      -1.0584      1.00000
     21      -0.7429      1.00000
     22       0.1482      1.00000
     23       0.2450      1.00000
     24       0.4421      1.00000
     25       0.6841      1.00000
     26       0.7863      1.00000
     27       1.0561      1.00000
     28       1.2758      1.00000
     29       3.0296      1.00000
     30       3.1310      1.00000
     31       3.3064      1.00000
     32       3.7000      1.00000
     33       5.2980      0.00000
     34       5.5264      0.00000
     35       8.2855      0.00000
     36       8.8626      0.00000
     37       8.8911      0.00000
     38       8.9211      0.00000
     39      12.6652      0.00000
     40      14.0767      0.00000
     41      14.3679      0.00000
     42      14.7095      0.00000

 k-point    24 :       0.4000    0.2000    0.5000
  band No.  band energies     occupation 
      1     -43.5743      1.00000
      2     -43.5698      1.00000
      3     -43.3623      1.00000
      4     -42.9362      1.00000
      5     -16.5893      1.00000
      6     -16.4180      1.00000
      7     -16.3589      1.00000
      8     -16.0405      1.00000
      9     -15.9900      1.00000
     10     -15.7226      1.00000
     11      -3.8584      1.00000
     12      -3.4850      1.00000
     13      -3.0499      1.00000
     14      -2.8344      1.00000
     15      -2.7723      1.00000
     16      -2.5378      1.00000
     17      -2.0955      1.00000
     18      -1.8323      1.00000
     19      -1.5958      1.00000
     20      -0.5402      1.00000
     21      -0.5111      1.00000
     22      -0.2019      1.00000
     23       0.5060      1.00000
     24       0.5149      1.00000
     25       0.8324      1.00000
     26       0.9466      1.00000
     27       1.0088      1.00000
     28       1.1133      1.00000
     29       2.8842      1.00000
     30       2.9011      1.00000
     31       3.3459      1.00000
     32       3.6510      1.00000
     33       5.4704      0.00000
     34       5.6318      0.00000
     35       8.2976      0.00000
     36       8.5917      0.00000
     37       8.7497      0.00000
     38       8.8876      0.00000
     39      13.3993      0.00000
     40      13.6032      0.00000
     41      14.6028      0.00000
     42      14.8736      0.00000


--------------------------------------------------------------------------------------------------------


 soft charge-density along one line, spin component           1
         0         1         2         3         4         5         6         7         8         9
 total charge-density along one line
 
 soft charge-density along one line, spin component           2
         0         1         2         3         4         5         6         7         8         9
 total charge-density along one line
 
 pseudopotential strength for first ion, spin component:           1
-34.861   4.799  -0.000   0.000   0.000
  4.799 -11.395  -0.000   0.000   0.000
 -0.000  -0.000   0.059  -0.000   0.000
  0.000   0.000  -0.000   0.057   0.000
  0.000   0.000   0.000   0.000   0.059
 pseudopotential strength for first ion, spin component:           2
-34.863   4.798  -0.000   0.000   0.000
  4.798 -11.394  -0.000  -0.000  -0.000
 -0.000  -0.000   0.058   0.000   0.000
  0.000  -0.000   0.000   0.056   0.000
  0.000  -0.000   0.000   0.000   0.058
 total augmentation occupancy for first ion, spin component:           1
  1.998  -0.036  -0.000   0.000  -0.000
 -0.036   0.507   0.000  -0.000   0.000
 -0.000   0.000   0.019  -0.000  -0.000
  0.000  -0.000  -0.000   0.023  -0.000
 -0.000   0.000  -0.000  -0.000   0.019
 total augmentation occupancy for first ion, spin component:           2
  0.000   0.000  -0.000   0.000   0.000
  0.000  -0.007   0.000  -0.000  -0.000
 -0.000   0.000  -0.000   0.000   0.000
  0.000  -0.000   0.000  -0.000   0.000
  0.000  -0.000   0.000   0.000  -0.000


------------------------ aborting loop because EDIFF is reached ----------------------------------------


 


 total charge     
 
# of ion       s       p       d       tot
------------------------------------------
    1        2.010   0.043   0.000   2.053
    2        2.020   0.063   0.000   2.084
    3        2.016   0.058   0.000   2.074
    4        2.016   0.058   0.000   2.074
    5        0.634   0.852   6.838   8.324
    6        0.634   0.852   6.838   8.324
    7        1.565   3.486   0.000   5.051
    8        1.567   3.478   0.000   5.045
    9        1.567   3.473   0.000   5.040
   10        1.567   3.478   0.000   5.045
   11        1.565   3.486   0.000   5.051
   12        1.567   3.473   0.000   5.040
--------------------------------------------------
tot         18.727  22.802  13.676  55.204
 


 magnetization (x)
 
# of ion       s       p       d       tot
------------------------------------------
    1       -0.000  -0.001   0.000  -0.001
    2        0.001  -0.001   0.000   0.001
    3       -0.000  -0.002   0.000  -0.002
    4       -0.000  -0.002   0.000  -0.002
    5        0.012   0.003   0.723   0.738
    6        0.012   0.003   0.723   0.738
    7        0.002   0.073   0.000   0.075
    8        0.002   0.071   0.000   0.072
    9        0.002   0.079   0.000   0.080
   10        0.002   0.071   0.000   0.072
   11        0.002   0.073   0.000   0.075
   12        0.002   0.079   0.000   0.080
--------------------------------------------------
tot          0.035   0.446   1.446   1.927
 
    FORLOC:  cpu time    0.0012: real time    0.0012
    FORHF :  cpu time  423.5410: real time  427.6961
    FORNL :  cpu time    0.0488: real time    0.0488
    STRESS:  cpu time    0.1455: real time    0.1455
    FORCOR:  cpu time    0.0553: real time    0.0590
    OFIELD:  cpu time    0.0002: real time    0.0002

  FORCE on cell =-STRESS in cart. coord.  units (eV):
  Direction    XX          YY          ZZ          XY          YZ          ZX
  --------------------------------------------------------------------------------------
  Alpha Z   255.72605   255.72605   255.72605
  Ewald   -1125.66828 -1125.67126 -1377.70407    -0.00000     0.00000    -0.00001
  Hartree   392.93990   392.93930   192.95221     0.00000    -0.00000     0.00001
  E(xc)    -241.68477  -241.68445  -240.76266     0.00000    -0.00000     0.00004
  Local    -367.60628  -367.60299   103.19828    -0.00000     0.00000     0.00002
  n-local  -202.16617  -202.55367  -198.75814    -0.00420    -0.10543     0.06541
  augment   181.57362   181.57556   172.86661    -0.00000     0.00000    -0.00002
  Kinetic  1187.71454  1188.64928  1169.29741     0.58345    -0.51984    -1.14780
  Fock      -81.05041   -80.94101   -76.78371     0.01559     0.10612     0.08982
  -------------------------------------------------------------------------------------
  Total       0.10751     0.10751     0.03197    -0.00000     0.00000     0.00000
  in kB       1.57773     1.57773     0.46914    -0.00000     0.00000     0.00000
  external pressure =        1.21 kB  Pullay stress =        0.00 kB


 VOLUME and BASIS-vectors are now :
 -----------------------------------------------------------------------------
  energy-cutoff  :      500.00
  volume of cell :      109.18
      direct lattice vectors                 reciprocal lattice vectors
     2.495849315 -4.322937738  0.000000000     0.200332607 -0.115662087  0.000000000
     2.495849315  4.322937738  0.000000000     0.200332607  0.115662087  0.000000000
    -0.000000000  0.000000000  5.059583779    -0.000000000 -0.000000000  0.197644716

  length of vectors
     4.991698558  4.991698558  5.059583779     0.231324170  0.231324170  0.197644716


 FORCES acting on ions:
    Electron-Ion                     Ewald-Force                    Non-Local-Force
 -----------------------------------------------------------------------------------------------
   -.342E-07 -.670E-07 -.459E-09   0.711E-14 0.000E+00 -.711E-14   0.355E-22 -.132E-22 -.820E-23
   -.507E-08 -.223E-07 -.628E-08   0.178E-13 -.355E-14 -.178E-13   0.705E-22 0.632E-21 0.236E-21
   -.434E-07 -.104E-02 0.413E-06   0.711E-14 -.299E-03 0.711E-14   0.729E-19 0.271E-19 -.998E-20
   0.648E-07 0.104E-02 -.415E-06   -.107E-13 0.299E-03 0.107E-13   0.101E-18 0.915E-19 0.708E-20
   0.118E-06 0.406E-03 0.547E-07   0.213E-13 -.136E-02 0.142E-12   0.455E-17 -.204E-17 0.781E-19
   -.142E-06 -.406E-03 -.506E-07   -.853E-13 0.136E-02 0.171E-12   -.134E-17 -.789E-17 -.898E-19
   -.651E+02 0.294E-06 0.141E+03   0.775E+02 0.355E-13 -.159E+03   -.108E+02 -.364E-16 0.152E+02
   0.325E+02 -.564E+02 0.141E+03   -.387E+02 0.671E+02 -.159E+03   0.538E+01 -.932E+01 0.152E+02
   0.325E+02 0.564E+02 0.141E+03   -.387E+02 -.671E+02 -.159E+03   0.538E+01 0.932E+01 0.152E+02
   -.325E+02 0.564E+02 -.141E+03   0.387E+02 -.671E+02 0.159E+03   -.538E+01 0.932E+01 -.152E+02
   0.651E+02 -.282E-06 -.141E+03   -.775E+02 0.184E-13 0.159E+03   0.108E+02 0.811E-16 -.152E+02
   -.325E+02 -.564E+02 -.141E+03   0.387E+02 0.671E+02 0.159E+03   -.538E+01 -.932E+01 -.152E+02
 -----------------------------------------------------------------------------------------------
   -.293E-07 -.278E-06 0.376E-07   0.142E-13 0.000E+00 0.114E-12   0.000E+00 -.178E-14 0.178E-14
 
 
 POSITION                                       TOTAL-FORCE (eV/Angst)
 -----------------------------------------------------------------------------------
      0.00000     -0.00000     -0.00000        -0.000000     -0.000000     -0.000000
      0.00000     -0.00000      2.52979        -0.000000      0.000000     -0.000000
      2.49585      1.44098      0.00000         0.000000      0.000000     -0.000000
      2.49585     -1.44098      0.00000        -0.000000      0.000000     -0.000000
      2.49585      1.44098      2.52979         0.000000      0.000000     -0.000000
      2.49585     -1.44098      2.52979         0.000000     -0.000000     -0.000000
      3.28364     -0.00000      1.34711        -0.021902     -0.000000     -0.023313
      0.85403     -1.47922      1.34711         0.010951     -0.018968     -0.023313
      0.85403      1.47922      1.34711         0.010951      0.018968     -0.023313
      1.64182     -2.84371      3.71247        -0.010951      0.018968      0.023313
      1.70806     -0.00000      3.71247         0.021902     -0.000000      0.023313
      1.64182      2.84371      3.71247        -0.010951     -0.018968      0.023313
 -----------------------------------------------------------------------------------
    total drift:                               -0.000000     -0.000000      0.000000


--------------------------------------------------------------------------------------------------------



  FREE ENERGIE OF THE ION-ELECTRON SYSTEM (eV)
  ---------------------------------------------------
  free  energy   TOTEN  =       -86.87125863 eV

  energy  without entropy=      -86.87123808  energy(sigma->0) =      -86.87124836
 
 d Force =-0.8703868E-04[-0.103E-03,-0.708E-04]  d Energy = 0.6511400E-04-0.152E-03
 d Force =-0.2626213E+00[-0.263E+00,-0.262E+00]  d Ewald  =-0.1670640E+01 0.141E+01


--------------------------------------------------------------------------------------------------------


    POTLOK:  cpu time    1.7662: real time    1.7668


--------------------------------------------------------------------------------------------------------




--------------------------------------------------------------------------------------------------------


  
 reached required accuracy - stopping structural energy minimisation
     LOOP+:  cpu time 1823.3900: real time 1836.5462
    4ORBIT:  cpu time    0.0000: real time    0.0000
 


 total charge     
 
# of ion       s       p       d       tot
------------------------------------------
    1        2.010   0.043   0.000   2.053
    2        2.020   0.063   0.000   2.084
    3        2.016   0.058   0.000   2.074
    4        2.016   0.058   0.000   2.074
    5        0.634   0.852   6.838   8.324
    6        0.634   0.852   6.838   8.324
    7        1.565   3.486   0.000   5.051
    8        1.567   3.478   0.000   5.045
    9        1.567   3.473   0.000   5.040
   10        1.567   3.478   0.000   5.045
   11        1.565   3.486   0.000   5.051
   12        1.567   3.473   0.000   5.040
--------------------------------------------------
tot         18.727  22.802  13.676  55.204
 


 magnetization (x)
 
# of ion       s       p       d       tot
------------------------------------------
    1       -0.000  -0.001   0.000  -0.001
    2        0.001  -0.001   0.000   0.001
    3       -0.000  -0.002   0.000  -0.002
    4       -0.000  -0.002   0.000  -0.002
    5        0.012   0.003   0.723   0.738
    6        0.012   0.003   0.723   0.738
    7        0.002   0.073   0.000   0.075
    8        0.002   0.071   0.000   0.072
    9        0.002   0.079   0.000   0.080
   10        0.002   0.071   0.000   0.072
   11        0.002   0.073   0.000   0.075
   12        0.002   0.079   0.000   0.080
--------------------------------------------------
tot          0.035   0.446   1.446   1.927
 

 total amount of memory used by VASP MPI-rank0   110721. kBytes
=======================================================================

   base      :      30000. kBytes
   nonlr-proj:      57065. kBytes
   fftplans  :        531. kBytes
   grid      :       2917. kBytes
   one-center:        373. kBytes
   HF        :        194. kBytes
   wavefun   :      19641. kBytes
 
  
  
 General timing and accounting informations for this job:
 ========================================================
  
                  Total CPU time used (sec):    57939.758
                            User time (sec):    57795.089
                          System time (sec):      144.668
                         Elapsed time (sec):    58350.796
  
                   Maximum memory used (kb):      235848.
                   Average memory used (kb):           0.
  
                          Minor page faults:     24297297
                          Major page faults:            0
                 Voluntary context switches:        12347
