 vasp.5.4.1 24Jun15 (build Mar 16 2017 16:02:35) complex                        
  
 executed on        BRENIAC-2016a date 2017.07.16  07:19:05
 running on  420 total cores
 distrk:  each k-point on   35 cores,   12 groups
 distr:  one band on NCORES_PER_BAND=   1 cores,   35 groups


--------------------------------------------------------------------------------------------------------


 INCAR:
 POTCAR:    PAW_PBE Li_sv 10Sep2004               
 POTCAR:    PAW_PBE Mn_pv 02Aug2007               
 POTCAR:    PAW_PBE O 08Apr2002                   

 ----------------------------------------------------------------------------- 
|                                                                             |
|           W    W    AA    RRRRR   N    N  II  N    N   GGGG   !!!           |
|           W    W   A  A   R    R  NN   N  II  NN   N  G    G  !!!           |
|           W    W  A    A  R    R  N N  N  II  N N  N  G       !!!           |
|           W WW W  AAAAAA  RRRRR   N  N N  II  N  N N  G  GGG   !            |
|           WW  WW  A    A  R   R   N   NN  II  N   NN  G    G                |
|           W    W  A    A  R    R  N    N  II  N    N   GGGG   !!!           |
|                                                                             |
|      For optimal performance we recommend to set                            |
|        NCORE= 4 - approx SQRT( number of cores)                             |
|      NCORE specifies how many cores store one orbital (NPAR=cpu/NCORE).     |
|      This setting can  greatly improve the performance of VASP for DFT.     |
|      The default, NPAR=number of cores might be grossly inefficient         |
|      on modern multi-core architectures or massively parallel machines.     |
|      Do your own testing !!!!                                               |
|      Unfortunately you need to use the default for GW and RPA calculations. |
|      (for HF NCORE is supported but not extensively tested yet)             |
|                                                                             |
 ----------------------------------------------------------------------------- 


 ----------------------------------------------------------------------------- 
|                                                                             |
|           W    W    AA    RRRRR   N    N  II  N    N   GGGG   !!!           |
|           W    W   A  A   R    R  NN   N  II  NN   N  G    G  !!!           |
|           W    W  A    A  R    R  N N  N  II  N N  N  G       !!!           |
|           W WW W  AAAAAA  RRRRR   N  N N  II  N  N N  G  GGG   !            |
|           WW  WW  A    A  R   R   N   NN  II  N   NN  G    G                |
|           W    W  A    A  R    R  N    N  II  N    N   GGGG   !!!           |
|                                                                             |
|      You have enabled k-point parallelism (KPAR>1).                         |
|      This developmental code was originally  written by Paul Kent at ORNL,  |
|      and carefully double checked in Vienna.                                |
|      GW as well as linear response parallelism added by Martijn Marsman     |
|      and Georg Kresse.                                                      |
|      Carefully verify results versus KPAR=1.                                |
|      Report problems to Paul Kent and Vienna.                               |
|                                                                             |
 ----------------------------------------------------------------------------- 

 POTCAR:    PAW_PBE Li_sv 10Sep2004               
   VRHFIN =Li: 1s2s2p                                                           
   LEXCH  = PE                                                                  
   EATOM  =   202.7858 eV,   14.9043 Ry                                         
                                                                                
   TITEL  = PAW_PBE Li_sv 10Sep2004                                             
   LULTRA =        F    use ultrasoft PP ?                                      
   IUNSCR =        0    unscreen: 0-lin 1-nonlin 2-no                           
   RPACOR =    0.000    partial core radius                                     
   POMASS =    7.010; ZVAL   =    3.000    mass and valenz                      
   RCORE  =    1.700    outmost cutoff radius                                   
   RWIGS  =    2.050; RWIGS  =    1.085    wigner-seitz radius (au A)           
   ENMAX  =  499.034; ENMIN  =  374.276 eV                                      
   ICORE  =        2    local potential                                         
   LCOR   =        T    correct aug charges                                     
   LPAW   =        T    paw PP                                                  
   EAUG   =  628.945                                                            
   RMAX   =    1.732    core radius for proj-oper                               
   RAUG   =    1.300    factor for augmentation sphere                          
   RDEP   =    1.728    radius for radial grids                                 
   RDEPT  =    1.329    core radius for aug-charge                              
                                                                                
   Atomic configuration                                                         
    4 entries                                                                   
     n  l   j            E        occ.                                          
     1  0  0.50       -51.8549   2.0000                                         
     2  0  0.50        -2.8742   1.0000                                         
     2  1  0.50        -1.3606   0.0000                                         
     3  2  1.50        -1.3606   0.0000                                         
   Description                                                                  
     l       E           TYP  RCUT    TYP  RCUT                                 
     0    -51.8548813     23  1.400                                             
     0     -2.8742052     23  1.700                                             
     1     -1.3605826     23  1.400                                             
     2     -1.3605826     23  1.400                                             
  local pseudopotential read in
  atomic valenz-charges read in
  non local Contribution for L=           0  read in
    real space projection operators read in
  non local Contribution for L=           0  read in
    real space projection operators read in
  non local Contribution for L=           1  read in
    real space projection operators read in
    PAW grid and wavefunctions read in
 
   number of l-projection  operators is LMAX  =           3
   number of lm-projection operators is LMMAX =           5
 
 POTCAR:    PAW_PBE Mn_pv 02Aug2007               
   VRHFIN =Mn: 3p4s3d                                                           
   LEXCH  = PE                                                                  
   EATOM  =  2025.2664 eV,  148.8529 Ry                                         
                                                                                
   TITEL  = PAW_PBE Mn_pv 02Aug2007                                             
   LULTRA =        F    use ultrasoft PP ?                                      
   IUNSCR =        1    unscreen: 0-lin 1-nonlin 2-no                           
   RPACOR =    2.080    partial core radius                                     
   POMASS =   54.938; ZVAL   =   13.000    mass and valenz                      
   RCORE  =    2.300    outmost cutoff radius                                   
   RWIGS  =    2.500; RWIGS  =    1.323    wigner-seitz radius (au A)           
   ENMAX  =  269.864; ENMIN  =  202.398 eV                                      
   ICORE  =        3    local potential                                         
   LCOR   =        T    correct aug charges                                     
   LPAW   =        T    paw PP                                                  
   EAUG   =  569.085                                                            
   DEXC   =    0.000                                                            
   RMAX   =    2.343    core radius for proj-oper                               
   RAUG   =    1.300    factor for augmentation sphere                          
   RDEP   =    2.338    radius for radial grids                                 
   RDEPT  =    1.798    core radius for aug-charge                              
                                                                                
   Atomic configuration                                                         
    8 entries                                                                   
     n  l   j            E        occ.                                          
     1  0  0.50     -6424.8287   2.0000                                         
     2  0  0.50      -739.1154   2.0000                                         
     2  1  1.50      -625.3949   6.0000                                         
     3  0  0.50       -81.6100   2.0000                                         
     3  1  1.50       -50.4667   6.0000                                         
     3  2  2.50        -3.3745   6.0000                                         
     4  0  0.50        -4.1331   1.0000                                         
     4  3  2.50        -1.3606   0.0000                                         
   Description                                                                  
     l       E           TYP  RCUT    TYP  RCUT                                 
     1    -50.4666628     23  2.000                                             
     1     -1.3605826     23  2.000                                             
     2     -3.3744729     23  2.300                                             
     2     -4.7350555     23  2.300                                             
     0     -4.1331431     23  2.300                                             
     0      7.6656591     23  2.300                                             
     3      9.5240782     23  2.300                                             
  local pseudopotential read in
  partial core-charges read in
  partial kinetic energy density read in
  atomic valenz-charges read in
  non local Contribution for L=           1  read in
    real space projection operators read in
  non local Contribution for L=           1  read in
    real space projection operators read in
  non local Contribution for L=           2  read in
    real space projection operators read in
  non local Contribution for L=           2  read in
    real space projection operators read in
  non local Contribution for L=           0  read in
    real space projection operators read in
  non local Contribution for L=           0  read in
    real space projection operators read in
    PAW grid and wavefunctions read in
 
   number of l-projection  operators is LMAX  =           6
   number of lm-projection operators is LMMAX =          18
 
 POTCAR:    PAW_PBE O 08Apr2002                   
   VRHFIN =O: s2p4                                                              
   LEXCH  = PE                                                                  
   EATOM  =   432.3788 eV,   31.7789 Ry                                         
                                                                                
   TITEL  = PAW_PBE O 08Apr2002                                                 
   LULTRA =        F    use ultrasoft PP ?                                      
   IUNSCR =        1    unscreen: 0-lin 1-nonlin 2-no                           
   RPACOR =    1.200    partial core radius                                     
   POMASS =   16.000; ZVAL   =    6.000    mass and valenz                      
   RCORE  =    1.520    outmost cutoff radius                                   
   RWIGS  =    1.550; RWIGS  =    0.820    wigner-seitz radius (au A)           
   ENMAX  =  400.000; ENMIN  =  300.000 eV                                      
   ICORE  =        2    local potential                                         
   LCOR   =        T    correct aug charges                                     
   LPAW   =        T    paw PP                                                  
   EAUG   =  605.392                                                            
   DEXC   =    0.000                                                            
   RMAX   =    1.553    core radius for proj-oper                               
   RAUG   =    1.300    factor for augmentation sphere                          
   RDEP   =    1.550    radius for radial grids                                 
   RDEPT  =    1.329    core radius for aug-charge                              
                                                                                
   Atomic configuration                                                         
    4 entries                                                                   
     n  l   j            E        occ.                                          
     1  0  0.50      -514.6923   2.0000                                         
     2  0  0.50       -23.9615   2.0000                                         
     2  1  0.50        -9.0305   4.0000                                         
     3  2  1.50        -9.5241   0.0000                                         
   Description                                                                  
     l       E           TYP  RCUT    TYP  RCUT                                 
     0    -23.9615318     23  1.200                                             
     0     -9.5240782     23  1.200                                             
     1     -9.0304911     23  1.520                                             
     1      8.1634956     23  1.520                                             
     2     -9.5240782      7  1.500                                             
  local pseudopotential read in
  partial core-charges read in
  partial kinetic energy density read in
  kinetic energy density of atom read in
  atomic valenz-charges read in
  non local Contribution for L=           0  read in
    real space projection operators read in
  non local Contribution for L=           0  read in
    real space projection operators read in
  non local Contribution for L=           1  read in
    real space projection operators read in
  non local Contribution for L=           1  read in
    real space projection operators read in
    PAW grid and wavefunctions read in
 
   number of l-projection  operators is LMAX  =           4
   number of lm-projection operators is LMMAX =           8
 
  PAW_PBE Li_sv 10Sep2004               :
 energy of atom  1       EATOM= -202.7858
 kinetic energy error for atom=    0.0100 (will be added to EATOM!!)
  PAW_PBE Mn_pv 02Aug2007               :
 energy of atom  2       EATOM=-2025.2664
 kinetic energy error for atom=    0.0047 (will be added to EATOM!!)
  PAW_PBE O 08Apr2002                   :
 energy of atom  3       EATOM= -432.3788
 kinetic energy error for atom=    0.0168 (will be added to EATOM!!)
 
 
 POSCAR: Li2MnO3 - Primitive cell (Cation arrange
  positions in direct lattice
  velocities in cartesian coordinates
 exchange correlation table for  LEXCH =        8
   RHO(1)=    0.500       N(1)  =     2000
   RHO(2)=  100.500       N(2)  =     4000
 


--------------------------------------------------------------------------------------------------------


 ion  position               nearest neighbor table
   1  0.500  0.500  0.000-  10 2.08  11 2.08  12 2.08   9 2.08   7 2.10   8 2.10   5 2.87   6 2.87
                             6 2.88   5 2.88   5 2.88   6 2.88
   2  0.000  0.000  0.500-   7 2.02   8 2.02   9 2.17  12 2.17  11 2.17  10 2.17
   3  0.662  0.338  0.500-   9 2.05  10 2.05   7 2.13   8 2.13  12 2.19  11 2.19
   4  0.338  0.662  0.500-  12 2.05  11 2.05   7 2.13   8 2.13   9 2.19  10 2.19
   5  0.167  0.833  0.000-   9 1.93  10 1.93  11 1.93  12 1.93   8 1.94   7 1.94   1 2.87   6 2.88
                             6 2.88   1 2.88   1 2.88   6 2.88
   6  0.833  0.167  0.000-  12 1.93  11 1.93  10 1.93   9 1.93   8 1.94   7 1.94   1 2.87   5 2.88
                             5 2.88   1 2.88   1 2.88   5 2.88
   7  0.781  0.781  0.229-   6 1.94   5 1.94   2 2.02   1 2.10   3 2.13   4 2.13
   8  0.219  0.219  0.771-   5 1.94   6 1.94   2 2.02   1 2.10   4 2.13   3 2.13
   9  0.067  0.424  0.225-   5 1.93   6 1.93   3 2.05   1 2.08   2 2.17   4 2.19
  10  0.576  0.933  0.775-   5 1.93   6 1.93   3 2.05   1 2.08   2 2.17   4 2.19
  11  0.933  0.576  0.775-   6 1.93   5 1.93   4 2.05   1 2.08   2 2.17   3 2.19
  12  0.424  0.067  0.225-   6 1.93   5 1.93   4 2.05   1 2.08   2 2.17   3 2.19
 
  LATTYP: Found a base centered monoclinic cell.
 ALAT       =     4.9920597177
 B/A-ratio  =     1.7279265295
 C/A-ratio  =     2.5282901536
 COS(beta)  =    -0.4634671370
  
  Lattice vectors:
  
 A1 = (  -2.4838287990,   4.3199942979,   0.0003180525)
 A2 = (   4.9831470376,   0.0013559728,   0.0003180525)
 A3 = (  -5.8465366248, -10.1087297472,  -4.7886021073)


Analysis of symmetry for initial positions (statically):
=====================================================================
 Subroutine PRICEL returns:
 Original cell was already a primitive cell.
 

 Routine SETGRP: Setting up the symmetry group for a 
 base centered monoclinic supercell.


 Subroutine GETGRP returns: Found  4 space group operations
 (whereof  4 operations were pure point group operations)
 out of a pool of  4 trial point group operations.


The static configuration has the point symmetry C_2h.


Analysis of symmetry for dynamics (positions and initial velocities):
=====================================================================
 Subroutine PRICEL returns:
 Original cell was already a primitive cell.
 

 Routine SETGRP: Setting up the symmetry group for a 
 base centered monoclinic supercell.


 Subroutine GETGRP returns: Found  4 space group operations
 (whereof  4 operations were pure point group operations)
 out of a pool of  4 trial point group operations.


The dynamic configuration has the point symmetry C_2h.


Analysis of structural, dynamic, and magnetic symmetry:
=====================================================================
 Subroutine PRICEL returns:
 Original cell was already a primitive cell.
 

 Routine SETGRP: Setting up the symmetry group for a 
 base centered monoclinic supercell.


 Subroutine GETGRP returns: Found  4 space group operations
 (whereof  4 operations were pure point group operations)
 out of a pool of  4 trial point group operations.


The magnetic configuration has the point symmetry C_2h.


 Subroutine INISYM returns: Found  4 space group operations
 (whereof  4 operations are pure point group operations),
 and found     1 'primitive' translations

 
 
 KPOINTS: Gamma                                   

Automatic generation of k-mesh.
Space group operators:
 irot       det(A)        alpha          n_x          n_y          n_z        tau_x        tau_y        tau_z
    1     1.000000     0.000000     1.000000     0.000000     0.000000     0.000000     0.000000     0.000000
    2    -1.000000     0.000000     1.000000     0.000000     0.000000     0.000000     0.000000     0.000000
    3     1.000000   180.000000     0.865645    -0.500659     0.000000     0.000000     0.000000     0.000000
    4    -1.000000   180.000000     0.865645    -0.500659     0.000000     0.000000     0.000000     0.000000
 
 Subroutine IBZKPT returns following result:
 ===========================================
 
 Found     24 irreducible k-points:
 
 Following reciprocal coordinates:
            Coordinates               Weight
  0.000000  0.000000  0.000000      1.000000
  0.250000  0.000000  0.000000      4.000000
  0.500000  0.000000  0.000000      2.000000
  0.250000  0.250000 -0.000000      2.000000
  0.500000  0.250000  0.000000      4.000000
 -0.250000  0.250000 -0.000000      2.000000
  0.500000  0.500000 -0.000000      1.000000
  0.000000 -0.000000  0.250000      2.000000
  0.250000 -0.000000  0.250000      4.000000
  0.500000  0.000000  0.250000      4.000000
 -0.250000 -0.000000  0.250000      4.000000
  0.250000  0.250000  0.250000      2.000000
  0.500000  0.250000  0.250000      4.000000
 -0.250000  0.250000  0.250000      4.000000
  0.500000  0.500000  0.250000      2.000000
 -0.250000  0.500000  0.250000      4.000000
 -0.250000 -0.250000  0.250000      2.000000
  0.000000 -0.000000  0.500000      1.000000
  0.250000  0.000000  0.500000      4.000000
  0.500000 -0.000000  0.500000      2.000000
  0.250000  0.250000  0.500000      2.000000
  0.500000  0.250000  0.500000      4.000000
 -0.250000  0.250000  0.500000      2.000000
  0.500000  0.500000  0.500000      1.000000
 
 Following cartesian coordinates:
            Coordinates               Weight
  0.000000  0.000000  0.000000      1.000000
  0.050162  0.028843 -0.017717      4.000000
  0.100325  0.057685 -0.035434      2.000000
  0.050148  0.086706 -0.035434      2.000000
  0.100310  0.115549 -0.053151      4.000000
 -0.050177  0.029021 -0.000000      2.000000
  0.100296  0.173412 -0.070868      1.000000
 -0.000003 -0.000006  0.052224      2.000000
  0.050159  0.028837  0.034507      4.000000
  0.100321  0.057680  0.016790      4.000000
 -0.050166 -0.028848  0.069940      4.000000
  0.050144  0.086700  0.016790      2.000000
  0.100307  0.115543 -0.000927      4.000000
 -0.050180  0.029015  0.052224      4.000000
  0.100292  0.173406 -0.018644      2.000000
 -0.050195  0.086878  0.034507      4.000000
 -0.050151 -0.086712  0.087657      2.000000
 -0.000007 -0.000012  0.104447      1.000000
  0.050156  0.028831  0.086730      4.000000
  0.100318  0.057674  0.069013      2.000000
  0.050141  0.086695  0.069013      2.000000
  0.100303  0.115537  0.051296      4.000000
 -0.050184  0.029009  0.104447      2.000000
  0.100289  0.173401  0.033579      1.000000
 
 TETIRR: Found    180 inequivalent tetrahedra from      384
 
 Subroutine IBZKPT_HF returns following result:
 ==============================================
 
 Found     64 k-points in 1st BZ
 the following     64 k-points will be used (e.g. in the exchange kernel)
 Following reciprocal coordinates:   # in IRBZ
  0.000000  0.000000  0.000000    0.01562500   1 t-inv F
  0.250000  0.000000  0.000000    0.01562500   2 t-inv F
  0.500000  0.000000  0.000000    0.01562500   3 t-inv F
  0.250000  0.250000 -0.000000    0.01562500   4 t-inv F
  0.500000  0.250000  0.000000    0.01562500   5 t-inv F
 -0.250000  0.250000 -0.000000    0.01562500   6 t-inv F
  0.500000  0.500000 -0.000000    0.01562500   7 t-inv F
  0.000000 -0.000000  0.250000    0.01562500   8 t-inv F
  0.250000 -0.000000  0.250000    0.01562500   9 t-inv F
  0.500000  0.000000  0.250000    0.01562500  10 t-inv F
 -0.250000 -0.000000  0.250000    0.01562500  11 t-inv F
  0.250000  0.250000  0.250000    0.01562500  12 t-inv F
  0.500000  0.250000  0.250000    0.01562500  13 t-inv F
 -0.250000  0.250000  0.250000    0.01562500  14 t-inv F
  0.500000  0.500000  0.250000    0.01562500  15 t-inv F
 -0.250000  0.500000  0.250000    0.01562500  16 t-inv F
 -0.250000 -0.250000  0.250000    0.01562500  17 t-inv F
  0.000000 -0.000000  0.500000    0.01562500  18 t-inv F
  0.250000  0.000000  0.500000    0.01562500  19 t-inv F
  0.500000 -0.000000  0.500000    0.01562500  20 t-inv F
  0.250000  0.250000  0.500000    0.01562500  21 t-inv F
  0.500000  0.250000  0.500000    0.01562500  22 t-inv F
 -0.250000  0.250000  0.500000    0.01562500  23 t-inv F
  0.500000  0.500000  0.500000    0.01562500  24 t-inv F
 -0.250000 -0.000000 -0.000000    0.01562500   2 t-inv F spinflp
 -0.000000 -0.250000 -0.000000    0.01562500   2 t-inv F
  0.000000  0.250000  0.000000    0.01562500   2 t-inv F spinflp
 -0.000000 -0.500000 -0.000000    0.01562500   3 t-inv F
 -0.250000 -0.250000  0.000000    0.01562500   4 t-inv F spinflp
 -0.500000 -0.250000 -0.000000    0.01562500   5 t-inv F spinflp
 -0.250000 -0.500000 -0.000000    0.01562500   5 t-inv F
  0.250000  0.500000  0.000000    0.01562500   5 t-inv F spinflp
  0.250000 -0.250000  0.000000    0.01562500   6 t-inv F spinflp
  0.000000  0.000000 -0.250000    0.01562500   8 t-inv F spinflp
 -0.250000  0.000000 -0.250000    0.01562500   9 t-inv F spinflp
  0.000000 -0.250000 -0.250000    0.01562500   9 t-inv F
 -0.000000  0.250000  0.250000    0.01562500   9 t-inv F spinflp
 -0.500000 -0.000000 -0.250000    0.01562500  10 t-inv F spinflp
 -0.000000 -0.500000 -0.250000    0.01562500  10 t-inv F
  0.000000  0.500000  0.250000    0.01562500  10 t-inv F spinflp
  0.250000  0.000000 -0.250000    0.01562500  11 t-inv F spinflp
  0.000000  0.250000 -0.250000    0.01562500  11 t-inv F
 -0.000000 -0.250000  0.250000    0.01562500  11 t-inv F spinflp
 -0.250000 -0.250000 -0.250000    0.01562500  12 t-inv F spinflp
 -0.500000 -0.250000 -0.250000    0.01562500  13 t-inv F spinflp
 -0.250000 -0.500000 -0.250000    0.01562500  13 t-inv F
  0.250000  0.500000  0.250000    0.01562500  13 t-inv F spinflp
  0.250000 -0.250000 -0.250000    0.01562500  14 t-inv F spinflp
 -0.250000  0.250000 -0.250000    0.01562500  14 t-inv F
  0.250000 -0.250000  0.250000    0.01562500  14 t-inv F spinflp
 -0.500000 -0.500000 -0.250000    0.01562500  15 t-inv F spinflp
  0.250000 -0.500000 -0.250000    0.01562500  16 t-inv F spinflp
 -0.500000  0.250000 -0.250000    0.01562500  16 t-inv F
  0.500000 -0.250000  0.250000    0.01562500  16 t-inv F spinflp
  0.250000  0.250000 -0.250000    0.01562500  17 t-inv F spinflp
 -0.250000 -0.000000 -0.500000    0.01562500  19 t-inv F spinflp
 -0.000000 -0.250000 -0.500000    0.01562500  19 t-inv F
  0.000000  0.250000  0.500000    0.01562500  19 t-inv F spinflp
  0.000000 -0.500000 -0.500000    0.01562500  20 t-inv F
 -0.250000 -0.250000 -0.500000    0.01562500  21 t-inv F spinflp
 -0.500000 -0.250000 -0.500000    0.01562500  22 t-inv F spinflp
 -0.250000 -0.500000 -0.500000    0.01562500  22 t-inv F
  0.250000  0.500000  0.500000    0.01562500  22 t-inv F spinflp
  0.250000 -0.250000 -0.500000    0.01562500  23 t-inv F spinflp


--------------------------------------------------------------------------------------------------------




 Dimension of arrays:
   k-points           NKPTS =     24   k-points in BZ     NKDIM =     64   number of bands    NBANDS=     70
   number of dos      NEDOS =    301   number of ions     NIONS =     12
   non local maximal  LDIM  =      6   non local SUM 2l+1 LMDIM =     18
   total plane-waves  NPLWV =  27000
   max r-space proj   IRMAX =      1   max aug-charges    IRDMAX=   8147
   dimension x,y,z NGX =    30 NGY =   30 NGZ =   30
   dimension x,y,z NGXF=    60 NGYF=   60 NGZF=   60
   support grid    NGXF=    60 NGYF=   60 NGZF=   60
   ions per type =               4   2   6
 NGX,Y,Z   is equivalent  to a cutoff of  10.01, 10.01,  9.82 a.u.
 NGXF,Y,Z  is equivalent  to a cutoff of  20.02, 20.02, 19.64 a.u.


 I would recommend the setting:
   dimension x,y,z NGX =    30 NGY =   30 NGZ =   30
 SYSTEM =  Li2MnO3                                 
 POSCAR =  Li2MnO3 - Primitive cell (Cation arrange

 Startparameter for this run:
   NWRITE =      2    write-flag & timer
   PREC   = normal    normal or accurate (medium, high low for compatibility)
   ISTART =      0    job   : 0-new  1-cont  2-samecut
   ICHARG =      2    charge: 1-file 2-atom 10-const
   ISPIN  =      2    spin polarized calculation?
   LNONCOLLINEAR =      F non collinear calculations
   LSORBIT =      F    spin-orbit coupling
   INIWAV =      1    electr: 0-lowe 1-rand  2-diag
   LASPH  =      F    aspherical Exc in radial PAW
   METAGGA=      F    non-selfconsistent MetaGGA calc.

 Electronic Relaxation 1
   ENCUT  =  600.0 eV  44.10 Ry    6.64 a.u.   9.95  9.95 10.14*2*pi/ulx,y,z
   ENINI  =  600.0     initial cutoff
   ENAUG  =  628.9 eV  augmentation charge cutoff
   NELM   =     60;   NELMIN=  2; NELMDL= -5     # of ELM steps 
   EDIFF  = 0.1E-03   stopping-criterion for ELM
   LREAL  =      F    real-space projection
   NLSPLINE    = F    spline interpolate recip. space projectors
   LCOMPAT=      F    compatible to vasp.4.4
   GGA_COMPAT  = T    GGA compatible to vasp.4.4-vasp.4.6
   LMAXPAW     = -100 max onsite density
   LMAXMIX     =    2 max onsite mixed and CHGCAR
   VOSKOWN=      0    Vosko Wilk Nusair interpolation
   ROPT   =    0.00000   0.00000   0.00000
 Ionic relaxation
   EDIFFG = 0.1E-02   stopping-criterion for IOM
   NSW    =      0    number of steps for IOM
   NBLOCK =      1;   KBLOCK =      1    inner block; outer block 
   IBRION =     -1    ionic relax: 0-MD 1-quasi-New 2-CG
   NFREE  =      0    steps in history (QN), initial steepest desc. (CG)
   ISIF   =      0    stress and relaxation
   IWAVPR =     10    prediction:  0-non 1-charg 2-wave 3-comb
   ISYM   =      3    0-nonsym 1-usesym 2-fastsym
   LCORR  =      T    Harris-Foulkes like correction to forces

   POTIM  = 0.5000    time-step for ionic-motion
   TEIN   =    0.0    initial temperature
   TEBEG  =    0.0;   TEEND  =   0.0 temperature during run
   SMASS  =  -3.00    Nose mass-parameter (am)
   estimated Nose-frequenzy (Omega)   =  0.10E-29 period in steps =****** mass=  -0.567E-27a.u.
   SCALEE = 1.0000    scale energy and forces
   NPACO  =    256;   APACO  = 16.0  distance and # of slots for P.C.
   PSTRESS=    0.0 pullay stress

  Mass of Ions in am
   POMASS =   7.01 54.94 16.00
  Ionic Valenz
   ZVAL   =   3.00 13.00  6.00
  Atomic Wigner-Seitz radii
   RWIGS  =  -1.00 -1.00 -1.00
  virtual crystal weights 
   VCA    =   1.00  1.00  1.00
   NELECT =      74.0000    total number of electrons
   NUPDOWN=      -1.0000    fix difference up-down

 DOS related values:
   EMIN   =  10.00;   EMAX   =-10.00  energy-range for DOS
   EFERMI =   0.00
   ISMEAR =    -5;   SIGMA  =   0.20  broadening in eV -4-tet -1-fermi 0-gaus

 Electronic relaxation 2 (details)
   IALGO  =     53    algorithm
   LDIAG  =      T    sub-space diagonalisation (order eigenvalues)
   LSUBROT=      F    optimize rotation matrix (better conditioning)
   TURBO    =      0    0=normal 1=particle mesh
   IRESTART =      0    0=no restart 2=restart with 2 vectors
   NREBOOT  =      0    no. of reboots
   NMIN     =      0    reboot dimension
   EREF     =   0.00    reference energy to select bands
   IMIX   =      4    mixing-type and parameters
     AMIX     =   0.40;   BMIX     =  1.00
     AMIX_MAG =   1.60;   BMIX_MAG =  1.00
     AMIN     =   0.10
     WC   =   100.;   INIMIX=   1;  MIXPRE=   1;  MAXMIX= -45

 Intra band minimization:
   WEIMIN = 0.0000     energy-eigenvalue tresh-hold
   EBREAK =  0.36E-06  absolut break condition
   DEPER  =   0.30     relativ break condition  

   TIME   =   0.40     timestep for ELM

  volume/ion in A,a.u.               =       8.59        57.96
  Fermi-wavevector in a.u.,A,eV,Ry     =   1.465916  2.770180 29.237708  2.148911
  Thomas-Fermi vector in A             =   2.581716
 
 Write flags
   LWAVE  =      T    write WAVECAR
   LCHARG =      T    write CHGCAR
   LVTOT  =      F    write LOCPOT, total local potential
   LVHAR  =      F    write LOCPOT, Hartree potential only
   LELF   =      F    write electronic localiz. function (ELF)
   LORBIT =     11    0 simple, 1 ext, 2 COOP (PROOUT)


 Dipole corrections
   LMONO  =      F    monopole corrections only (constant potential shift)
   LDIPOL =      F    correct potential (dipole corrections)
   IDIPOL =      0    1-x, 2-y, 3-z, 4-all directions 
   EPSILON=  1.0000000 bulk dielectric constant

 Exchange correlation treatment:
   GGA     =    --    GGA type
   LEXCH   =     8    internal setting for exchange type
   VOSKOWN=      0    Vosko Wilk Nusair interpolation
   EXXOEP  =     0    0=HF, 1=EXX-LHF (local Hartree Fock) 2=EXX OEP
   LHFCALC =     T    Hartree Fock is set to
   LSYMGRAD=     F    symmetrize gradient (conserves proper symmetry)
   PRECFOCK=fast      Normal, Fast or Accurate (Low or Medium for compatibility)
   LRHFCALC=     F    long range Hartree Fock
   LRSCOR  =     F    long range correlation only (use DFT for short range part)
   LTHOMAS =     F    Thomas Fermi screening in HF
   LMODELHF=     F    short range full HF, long range fraction AEXX
   ENCUT4O =  -1.0   cutoff for four orbital integrals eV
   LMAXFOCK=     4    L truncation for augmentation on plane wave grid
   LMAXFOCKAE=  -1    L truncation for all-electron charge restoration on plane wave grid
   NMAXFOCKAE=   1    number of basis functions for all-electron charge restoration
   LFOCKAEDFT=     F  apply the AE augmentation even for DFT
   NKREDX  =     1    reduce k-point grid by
   NKREDY  =     1    reduce k-point grid by
   NKREDZ  =     1    reduce k-point grid by
   SHIFTRED=     F    shift reduced grid of Gamma
   HFKIDENT=     F    idential grid for each k-point
   ODDONLY =     F    use only odd q-grid points
   EVENONLY=     F    use only even q-grid points
   HFALPHA =   -1.0000 decay constant for conv. correction
   MCALPHA =    0.0000 extent of test-charge in conv. correction in multipole expansion
   AEXX    =    0.2500 exact exchange contribution
   HFSCREEN=    0.2000 screening length (either q_TF or 0.3 A-1)
   HFSCREENC=   0.2000 screening length for correlation (either q_TF or 0.3 A-1)
   HFRCUT  =    0.0000 spherical cutoff for potential kernel
   ALDAX   =    0.7500 LDA exchange part
   AGGAX   =    0.7500 GGA exchange part
   ALDAC   =    1.0000 LDA correlation
   AGGAC   =    1.0000 GGA correlation
   NBANDSGWLOW=     1    first orbital included in HF term
   ENCUTFOCK=  -1.0 apply spherical cutoff to Coloumb kernel
 Linear response parameters
   LEPSILON=     F    determine dielectric tensor
   LRPA    =     F    only Hartree local field effects (RPA)
   LNABLA  =     F    use nabla operator in PAW spheres
   LVEL    =     F    velocity operator in full k-point grid
   LINTERFAST=   F  fast interpolation
   KINTER  =     0    interpolate to denser k-point grid
   CSHIFT  =0.1000    complex shift for real part using Kramers Kronig
   OMEGAMAX=  -1.0    maximum frequency
   DEG_THRESHOLD= 0.2000000E-02 threshold for treating states as degnerate
   RTIME   =    0.100 relaxation time in fs

 Orbital magnetization related:
   ORBITALMAG=     F  switch on orbital magnetization
   LCHIMAG   =     F  perturbation theory with respect to B field
   DQ        =  0.001000  dq finite difference perturbation B field



--------------------------------------------------------------------------------------------------------


 Static calculation
 charge density and potential will be updated during run
 spin polarized calculation
 Conjugate gradient for all bands (Freysoldt, et al. PRB 79, 241103 (2009))
 perform sub-space diagonalisation
    before iterative eigenvector-optimisation
 modified Broyden-mixing scheme, WC =      100.0
 initial mixing is a Kerker type mixing with AMIX =  0.4000 and BMIX =      1.0000
 Hartree-type preconditioning will be used
 using additional bands           33
 reciprocal scheme for non local part
 use partial core corrections
 no Harris-corrections to forces 
 use gradient corrections 
 use of overlap-Matrix (Vanderbilt PP)
 Fermi weights with tetrahedron method with Bloechl corrections


--------------------------------------------------------------------------------------------------------


  energy-cutoff  :      600.00
  volume of cell :      103.07
      direct lattice vectors                 reciprocal lattice vectors
     4.983147038  0.001355973  0.000318052     0.200649528  0.115370897 -0.070867869
    -2.483828799  4.319994298  0.000318052    -0.000058458  0.231453393 -0.070867869
     0.847900148  1.466029206  4.787329897    -0.000013327 -0.000023042  0.208894123

  length of vectors
     4.983147232  4.983147232  5.078061031     0.242059769  0.242059769  0.208894124


 
 k-points in units of 2pi/SCALE and weight: Gamma                                   
   0.00000000  0.00000000  0.00000000       0.016
   0.05016238  0.02884272 -0.01771697       0.062
   0.10032476  0.05768545 -0.03543393       0.031
   0.05014777  0.08670607 -0.03543393       0.031
   0.10031015  0.11554880 -0.05315090       0.062
  -0.05017700  0.02902062 -0.00000000       0.031
   0.10029553  0.17341215 -0.07086787       0.016
  -0.00000333 -0.00000576  0.05222353       0.031
   0.05015905  0.02883696  0.03450656       0.062
   0.10032143  0.05767969  0.01678960       0.062
  -0.05016571 -0.02884848  0.06994050       0.062
   0.05014444  0.08670031  0.01678960       0.031
   0.10030682  0.11554304 -0.00092737       0.062
  -0.05018033  0.02901486  0.05222353       0.062
   0.10029220  0.17340638 -0.01864434       0.031
  -0.05019494  0.08687821  0.03450656       0.062
  -0.05015110 -0.08671183  0.08765747       0.031
  -0.00000666 -0.00001152  0.10444706       0.016
   0.05015572  0.02883120  0.08673009       0.062
   0.10031810  0.05767393  0.06901313       0.031
   0.05014110  0.08669455  0.06901313       0.031
   0.10030349  0.11553728  0.05129616       0.062
  -0.05018366  0.02900910  0.10444706       0.031
   0.10028887  0.17340062  0.03357919       0.016
 
 k-points in reciprocal lattice and weights: Gamma                                   
   0.00000000  0.00000000  0.00000000       0.016
   0.25000000  0.00000000  0.00000000       0.062
   0.50000000  0.00000000  0.00000000       0.031
   0.25000000  0.25000000 -0.00000000       0.031
   0.50000000  0.25000000  0.00000000       0.062
  -0.25000000  0.25000000 -0.00000000       0.031
   0.50000000  0.50000000 -0.00000000       0.016
   0.00000000 -0.00000000  0.25000000       0.031
   0.25000000 -0.00000000  0.25000000       0.062
   0.50000000  0.00000000  0.25000000       0.062
  -0.25000000 -0.00000000  0.25000000       0.062
   0.25000000  0.25000000  0.25000000       0.031
   0.50000000  0.25000000  0.25000000       0.062
  -0.25000000  0.25000000  0.25000000       0.062
   0.50000000  0.50000000  0.25000000       0.031
  -0.25000000  0.50000000  0.25000000       0.062
  -0.25000000 -0.25000000  0.25000000       0.031
   0.00000000 -0.00000000  0.50000000       0.016
   0.25000000  0.00000000  0.50000000       0.062
   0.50000000 -0.00000000  0.50000000       0.031
   0.25000000  0.25000000  0.50000000       0.031
   0.50000000  0.25000000  0.50000000       0.062
  -0.25000000  0.25000000  0.50000000       0.031
   0.50000000  0.50000000  0.50000000       0.016
 
 position of ions in fractional coordinates (direct lattice) 
   0.50000000  0.50000000  0.00000000
   0.00000000  0.00000000  0.50000000
   0.66183005  0.33816995  0.50000000
   0.33816995  0.66183005  0.50000000
   0.16710130  0.83289867  0.00000000
   0.83289867  0.16710130  0.00000000
   0.78095038  0.78095038  0.22897358
   0.21904960  0.21904960  0.77102644
   0.06658113  0.42420807  0.22450667
   0.57579193  0.93341884  0.77549335
   0.93341884  0.57579193  0.77549335
   0.42420807  0.06658113  0.22450667
 
 position of ions in cartesian coordinates  (Angst):
   1.24965912  2.16067514  0.00031805
   0.42395007  0.73301460  2.39366495
   2.88199027  2.19480428  2.39398300
   0.46522812  3.59257520  2.39398300
  -1.23608737  3.59834410  0.00031805
   3.73540553  0.72300604  0.00031805
   2.14599026  3.71044209  1.09666881
   1.20122810  2.07693734  3.69129726
  -0.53151741  2.16180009  1.07494361
   1.20834415  5.17004074  3.71302253
   3.87873571  3.62557943  3.71302253
   2.13887431  0.61733868  1.07494361
 


--------------------------------------------------------------------------------------------------------


 k-point  1 :   0.0000 0.0000 0.0000  plane waves:    3405
 k-point  2 :   0.2500 0.0000 0.0000  plane waves:    3427
 k-point  3 :   0.5000 0.0000 0.0000  plane waves:    3426
 k-point  4 :   0.2500 0.2500-0.0000  plane waves:    3439
 k-point  5 :   0.5000 0.2500 0.0000  plane waves:    3459
 k-point  6 :  -0.2500 0.2500-0.0000  plane waves:    3437
 k-point  7 :   0.5000 0.5000-0.0000  plane waves:    3452
 k-point  8 :   0.0000-0.0000 0.2500  plane waves:    3432
 k-point  9 :   0.2500-0.0000 0.2500  plane waves:    3427
 k-point 10 :   0.5000 0.0000 0.2500  plane waves:    3444
 k-point 11 :  -0.2500-0.0000 0.2500  plane waves:    3443
 k-point 12 :   0.2500 0.2500 0.2500  plane waves:    3445
 k-point 13 :   0.5000 0.2500 0.2500  plane waves:    3434
 k-point 14 :  -0.2500 0.2500 0.2500  plane waves:    3426
 k-point 15 :   0.5000 0.5000 0.2500  plane waves:    3442
 k-point 16 :  -0.2500 0.5000 0.2500  plane waves:    3453
 k-point 17 :  -0.2500-0.2500 0.2500  plane waves:    3458
 k-point 18 :   0.0000-0.0000 0.5000  plane waves:    3430
 k-point 19 :   0.2500 0.0000 0.5000  plane waves:    3438
 k-point 20 :   0.5000-0.0000 0.5000  plane waves:    3442
 k-point 21 :   0.2500 0.2500 0.5000  plane waves:    3456
 k-point 22 :   0.5000 0.2500 0.5000  plane waves:    3451
 k-point 23 :  -0.2500 0.2500 0.5000  plane waves:    3430
 k-point 24 :   0.5000 0.5000 0.5000  plane waves:    3450

 maximum and minimum number of plane-waves per node :      3459     3405

 maximum number of plane-waves:      3459
 maximum index in each direction: 
   IXMAX=   10   IYMAX=   10   IZMAX=   10
   IXMIN=  -10   IYMIN=  -10   IZMIN=  -10

 WARNING: aliasing errors must be expected set NGX to  42 to avoid them
 WARNING: aliasing errors must be expected set NGY to  42 to avoid them
 WARNING: aliasing errors must be expected set NGZ to  42 to avoid them
 aliasing errors are usually negligible using standard VASP settings
 and one can safely disregard these warnings

 serial   3D FFT for wavefunctions
 parallel 3D FFT for charge:
    minimum data exchange during FFTs selected (reduces bandwidth)


 FFT grid for exact exchange (Hartree Fock) 
  NGX = 24; NGY = 24; NGZ = 24

 
 Radii for the augmentation spheres in the non-local exchange
 for species   1 augmentation radius   0.956 (default was   0.708)
       energy cutoff for augmentation   2400.0
 for species   2 augmentation radius   1.293 (default was   0.958)
       energy cutoff for augmentation   2400.0
 for species   3 augmentation radius   0.974 (default was   0.722)
       energy cutoff for augmentation   2400.0
 Maximum index for augmentation-charges in exchange         1217
  SETUP_FOCK is finished

 total amount of memory used by VASP on root node    87999. kBytes
========================================================================

   base      :      30000. kBytes
   nonl-proj :      36590. kBytes
   fftplans  :        360. kBytes
   grid      :       2839. kBytes
   one-center:        373. kBytes
   HF        :        194. kBytes
   nonlr-proj:       1194. kBytes
   wavefun   :      16449. kBytes
 
     INWAV:  cpu time    0.0010: real time    0.0070
 Broyden mixing: mesh for mixing (old mesh)
   NGX = 19   NGY = 19   NGZ = 21
  (NGX  = 60   NGY  = 60   NGZ  = 60)
  gives a total of   7581 points

 initial charge density was supplied:
 charge density of overlapping atoms calculated
 number of electron      74.0000000 magnetization      -0.0000000
 keeping initial charge density in first step


--------------------------------------------------------------------------------------------------------


 BZINTS: Fermi energy:360.134862; 74.000000 electrons
         Band energy:***********;  BLOECHL correction:-57.666385
 Maximum index for augmentation-charges          235 (set IRDMAX)


--------------------------------------------------------------------------------------------------------


 First call to EWALD:  gamma=   0.378
 Maximum number of real-space cells 3x 3x 3
 Maximum number of reciprocal cells 3x 3x 3

 FEWALD executed in parallel
    FEWALD:  cpu time    0.0184: real time    0.0430

 ----------------------------------------------------------------------------- 
|                                                                             |
|           W    W    AA    RRRRR   N    N  II  N    N   GGGG   !!!           |
|           W    W   A  A   R    R  NN   N  II  NN   N  G    G  !!!           |
|           W    W  A    A  R    R  N N  N  II  N N  N  G       !!!           |
|           W WW W  AAAAAA  RRRRR   N  N N  II  N  N N  G  GGG   !            |
|           WW  WW  A    A  R   R   N   NN  II  N   NN  G    G                |
|           W    W  A    A  R    R  N    N  II  N    N   GGGG   !!!           |
|                                                                             |
|      ALGO=A and IALGO=5X tend to fail with the tetrahedron method           |
|      (e.g. Bloechls method ISMEAR=-5 is not variational)                    |
|      please switch to IMSEAR=0-n, except for DOS calculations               |
|      For DOS calculations use IALGO=53 after preconverging with ISMEAR>=0   |
|          I HOPE YOU KNOW, WHAT YOU ARE  DOING                               |
|                                                                             |
 ----------------------------------------------------------------------------- 



----------------------------------------- Iteration    1(   1)  ---------------------------------------


    POTLOK:  cpu time    0.0402: real time    0.0762
    SETDIJ:  cpu time    0.1812: real time    0.3590
 BZINTS: Fermi energy: 57.213084; 74.000000 electrons
         Band energy:2387.622387;  BLOECHL correction: -0.974872
    TRIAL :  cpu time    0.3558: real time    0.7134
 BZINTS: Fermi energy: 57.213084; 74.000000 electrons
         Band energy:2387.622387;  BLOECHL correction: -0.974872
    CORREC:  cpu time    0.0452: real time    0.0978
    --------------------------------------------
      LOOP:  cpu time    0.6287: real time    1.2595

 eigenvalue-minimisations  :  8400
 total energy-change (2. order) : 0.3154067E+04  (-0.2070460E+05)
 number of electron      74.0000000 magnetization      -0.0000000
 augmentation part       74.0000000 magnetization      -0.0000000

 Free energy of the ion-electron system (eV)
  ---------------------------------------------------
  alpha Z        PSCENC =       254.99681063
  Ewald energy   TEWEN  =     -4763.26635216
  -Hartree energ DENC   =     -2285.87815200
  -exchange      EXHF   =         0.00000000
  -V(xc)+E(xc)   XCENC  =       273.11167094
  PAW double counting   =      5768.44016720    -5907.03344719
  entropy T*S    EENTRO =         0.00000000
  eigenvalues    EBANDS =      2387.62238725
  atomic energy  EATOM  =      7426.07396366
  ---------------------------------------------------
  free energy    TOTEN  =      3154.06704834 eV

  energy without entropy =     3154.06704834  energy(sigma->0) =     3154.06704834
  exchange ACFDT corr.  =         0.00000000  see jH, gK, PRB 81, 115126


--------------------------------------------------------------------------------------------------------




----------------------------------------- Iteration    1(   2)  ---------------------------------------


 BZINTS: Fermi energy: 20.487448; 74.000000 electrons
         Band energy:  50.310042;  BLOECHL correction: -1.006477
    TRIAL :  cpu time    0.6149: real time    1.2244
 BZINTS: Fermi energy: 20.487448; 74.000000 electrons
         Band energy:  50.310042;  BLOECHL correction: -1.006477
    CORREC:  cpu time    0.0506: real time    0.0937
    --------------------------------------------
      LOOP:  cpu time    0.6879: real time    1.3585

 eigenvalue-minimisations  : 10045
 total energy-change (2. order) :-0.2337312E+04  (-0.2042299E+04)
 number of electron      74.0000000 magnetization      -0.0000000
 augmentation part       74.0000000 magnetization      -0.0000000

 Free energy of the ion-electron system (eV)
  ---------------------------------------------------
  alpha Z        PSCENC =       254.99681063
  Ewald energy   TEWEN  =     -4763.26635216
  -Hartree energ DENC   =     -2285.87815200
  -exchange      EXHF   =         0.00000000
  -V(xc)+E(xc)   XCENC  =       273.11167094
  PAW double counting   =      5768.44016720    -5907.03344719
  entropy T*S    EENTRO =         0.00000000
  eigenvalues    EBANDS =        50.31004180
  atomic energy  EATOM  =      7426.07396366
  ---------------------------------------------------
  free energy    TOTEN  =       816.75470289 eV

  energy without entropy =      816.75470289  energy(sigma->0) =      816.75470289
  exchange ACFDT corr.  =         0.00000000  see jH, gK, PRB 81, 115126


--------------------------------------------------------------------------------------------------------




----------------------------------------- Iteration    1(   3)  ---------------------------------------


 BZINTS: Fermi energy: 13.873852; 74.000000 electrons
         Band energy:-588.130899;  BLOECHL correction:  0.000000
    TRIAL :  cpu time    0.7707: real time    1.5384
 BZINTS: Fermi energy: 13.873852; 74.000000 electrons
         Band energy:-588.130899;  BLOECHL correction:  0.000000
    CORREC:  cpu time    0.0090: real time    0.0110
    --------------------------------------------
      LOOP:  cpu time    0.8126: real time    1.6280

 eigenvalue-minimisations  : 13370
 total energy-change (2. order) :-0.6384409E+03  (-0.6035957E+03)
 number of electron      74.0000000 magnetization      -0.0000000
 augmentation part       74.0000000 magnetization      -0.0000000

 Free energy of the ion-electron system (eV)
  ---------------------------------------------------
  alpha Z        PSCENC =       254.99681063
  Ewald energy   TEWEN  =     -4763.26635216
  -Hartree energ DENC   =     -2285.87815200
  -exchange      EXHF   =         0.00000000
  -V(xc)+E(xc)   XCENC  =       273.11167094
  PAW double counting   =      5768.44016720    -5907.03344719
  entropy T*S    EENTRO =         0.00000000
  eigenvalues    EBANDS =      -588.13089942
  atomic energy  EATOM  =      7426.07396366
  ---------------------------------------------------
  free energy    TOTEN  =       178.31376166 eV

  energy without entropy =      178.31376166  energy(sigma->0) =      178.31376166
  exchange ACFDT corr.  =         0.00000000  see jH, gK, PRB 81, 115126


--------------------------------------------------------------------------------------------------------




----------------------------------------- Iteration    1(   4)  ---------------------------------------


 BZINTS: Fermi energy: 12.062749; 74.000000 electrons
         Band energy:-650.251554;  BLOECHL correction:  0.000000
    TRIAL :  cpu time    0.5870: real time    1.1709
 BZINTS: Fermi energy: 12.062749; 74.000000 electrons
         Band energy:-650.251554;  BLOECHL correction:  0.000000
    CORREC:  cpu time    0.0086: real time    0.0182
    --------------------------------------------
      LOOP:  cpu time    0.5981: real time    1.2101

 eigenvalue-minimisations  : 11375
 total energy-change (2. order) :-0.6212065E+02  (-0.5990326E+02)
 number of electron      74.0000000 magnetization      -0.0000000
 augmentation part       74.0000000 magnetization      -0.0000000

 Free energy of the ion-electron system (eV)
  ---------------------------------------------------
  alpha Z        PSCENC =       254.99681063
  Ewald energy   TEWEN  =     -4763.26635216
  -Hartree energ DENC   =     -2285.87815200
  -exchange      EXHF   =         0.00000000
  -V(xc)+E(xc)   XCENC  =       273.11167094
  PAW double counting   =      5768.44016720    -5907.03344719
  entropy T*S    EENTRO =         0.00000000
  eigenvalues    EBANDS =      -650.25155393
  atomic energy  EATOM  =      7426.07396366
  ---------------------------------------------------
  free energy    TOTEN  =       116.19310716 eV

  energy without entropy =      116.19310716  energy(sigma->0) =      116.19310716
  exchange ACFDT corr.  =         0.00000000  see jH, gK, PRB 81, 115126


--------------------------------------------------------------------------------------------------------




----------------------------------------- Iteration    1(   5)  ---------------------------------------


 BZINTS: Fermi energy: 11.809050; 74.000000 electrons
         Band energy:-661.054811;  BLOECHL correction:  0.000000
    TRIAL :  cpu time    0.7173: real time    1.4358
 BZINTS: Fermi energy: 11.809050; 74.000000 electrons
         Band energy:-661.054811;  BLOECHL correction:  0.000000
    CORREC:  cpu time    0.0083: real time    0.0195
    CHARGE:  cpu time    0.0254: real time    0.0482
    --------------------------------------------
      LOOP:  cpu time    0.7582: real time    1.5192

 eigenvalue-minimisations  : 13370
 total energy-change (2. order) :-0.1080326E+02  (-0.1055019E+02)
 number of electron      73.9999978 magnetization      -0.0000000
 augmentation part       19.9561463 magnetization       0.0019804

 Free energy of the ion-electron system (eV)
  ---------------------------------------------------
  alpha Z        PSCENC =       254.99681063
  Ewald energy   TEWEN  =     -4763.26635216
  -Hartree energ DENC   =     -2285.87815200
  -exchange      EXHF   =         0.00000000
  -V(xc)+E(xc)   XCENC  =       273.11167094
  PAW double counting   =      5768.44016720    -5907.03344719
  entropy T*S    EENTRO =         0.00000000
  eigenvalues    EBANDS =      -661.05481090
  atomic energy  EATOM  =      7426.07396366
  ---------------------------------------------------
  free energy    TOTEN  =       105.38985019 eV

  energy without entropy =      105.38985019  energy(sigma->0) =      105.38985019
  exchange ACFDT corr.  =         0.00000000  see jH, gK, PRB 81, 115126


--------------------------------------------------------------------------------------------------------




----------------------------------------- Iteration    1(   6)  ---------------------------------------


    POTLOK:  cpu time    0.0584: real time    0.1161
    SETDIJ:  cpu time    0.1590: real time    0.3230
    TRIAL :  cpu time   31.8023: real time   64.1054
 BZINTS: Fermi energy:  6.978150; 74.000000 electrons
         Band energy:-804.549772;  BLOECHL correction:  0.000000
    CORREC:  cpu time    0.0079: real time    0.0181
    CHARGE:  cpu time    0.0172: real time    0.0317
    --------------------------------------------
      LOOP:  cpu time   32.0470: real time   64.5991

 eigenvalue-minimisations  :     0
 total energy-change (2. order) :-0.1312657E+03  (-0.1494150E+03)
 number of electron      73.9999979 magnetization      -0.0000000
 augmentation part       22.4006575 magnetization       0.0024221

 Free energy of the ion-electron system (eV)
  ---------------------------------------------------
  alpha Z        PSCENC =       254.99681063
  Ewald energy   TEWEN  =     -4763.26635216
  -Hartree energ DENC   =     -1784.70713921
  -exchange      EXHF   =       226.36660446
  -V(xc)+E(xc)   XCENC  =       264.65405521
  PAW double counting   =      7119.35821034    -7250.42428958
  entropy T*S    EENTRO =         0.00000000
  eigenvalues    EBANDS =     -1518.92767553
  atomic energy  EATOM  =      7426.07396366
  ---------------------------------------------------
  free energy    TOTEN  =       -25.87581218 eV

  energy without entropy =      -25.87581218  energy(sigma->0) =      -25.87581218
  exchange ACFDT corr.  =         0.00000000  see jH, gK, PRB 81, 115126


--------------------------------------------------------------------------------------------------------




----------------------------------------- Iteration    1(   7)  ---------------------------------------


    POTLOK:  cpu time    0.0501: real time    0.0987
    SETDIJ:  cpu time    0.1668: real time    0.3340
    TRIAL :  cpu time   31.7483: real time   63.6748
 BZINTS: Fermi energy:  4.620622; 74.000000 electrons
         Band energy:-925.894377;  BLOECHL correction:  0.000000
    CORREC:  cpu time    0.0067: real time    0.0094
    CHARGE:  cpu time    0.0174: real time    0.0384
    --------------------------------------------
      LOOP:  cpu time   31.9902: real time   64.1588

 eigenvalue-minimisations  :     0
 total energy-change (2. order) :-0.5839652E+02  (-0.1501983E+02)
 number of electron      73.9999979 magnetization      -0.0000000
 augmentation part       22.9833913 magnetization       0.0019135

 Free energy of the ion-electron system (eV)
  ---------------------------------------------------
  alpha Z        PSCENC =       254.99681063
  Ewald energy   TEWEN  =     -4763.26635216
  -Hartree energ DENC   =     -2133.46351100
  -exchange      EXHF   =       227.72018773
  -V(xc)+E(xc)   XCENC  =       272.13960767
  PAW double counting   =      7794.68343474    -7969.86288599
  entropy T*S    EENTRO =         0.00000000
  eigenvalues    EBANDS =     -1193.29359205
  atomic energy  EATOM  =      7426.07396366
  ---------------------------------------------------
  free energy    TOTEN  =       -84.27233677 eV

  energy without entropy =      -84.27233677  energy(sigma->0) =      -84.27233677
  exchange ACFDT corr.  =         0.00000000  see jH, gK, PRB 81, 115126


--------------------------------------------------------------------------------------------------------




----------------------------------------- Iteration    1(   8)  ---------------------------------------


    POTLOK:  cpu time    0.0407: real time    0.0806
    SETDIJ:  cpu time    0.1854: real time    0.3718
    TRIAL :  cpu time   31.0452: real time   62.9132
 BZINTS: Fermi energy:  4.015958; 74.000000 electrons
         Band energy:-984.445496;  BLOECHL correction:  0.000000
    CORREC:  cpu time    0.0107: real time    0.0242
    CHARGE:  cpu time    0.0160: real time    0.0275
    --------------------------------------------
      LOOP:  cpu time   31.2990: real time   63.4202

 eigenvalue-minimisations  :     0
 total energy-change (2. order) : 0.1005431E+01  (-0.3471860E+02)
 number of electron      73.9999979 magnetization       0.0000000
 augmentation part       21.8379328 magnetization       0.0012852

 Free energy of the ion-electron system (eV)
  ---------------------------------------------------
  alpha Z        PSCENC =       254.99681063
  Ewald energy   TEWEN  =     -4763.26635216
  -Hartree energ DENC   =     -2329.67562371
  -exchange      EXHF   =       226.62290882
  -V(xc)+E(xc)   XCENC  =       274.96982074
  PAW double counting   =      8321.28838221    -8500.08816994
  entropy T*S    EENTRO =         0.00000000
  eigenvalues    EBANDS =      -994.18864639
  atomic energy  EATOM  =      7426.07396366
  ---------------------------------------------------
  free energy    TOTEN  =       -83.26690614 eV

  energy without entropy =      -83.26690614  energy(sigma->0) =      -83.26690614
  exchange ACFDT corr.  =         0.00000000  see jH, gK, PRB 81, 115126


--------------------------------------------------------------------------------------------------------




----------------------------------------- Iteration    1(   9)  ---------------------------------------


    POTLOK:  cpu time    0.0411: real time    0.0819
    SETDIJ:  cpu time    0.1765: real time    0.3535
    TRIAL :  cpu time   31.7481: real time   63.8085
 BZINTS: Fermi energy:  3.452919; 74.000000 electrons
         Band energy:***********;  BLOECHL correction:  0.000000
    CORREC:  cpu time    0.0080: real time    0.0165
    CHARGE:  cpu time    0.0184: real time    0.0362
    --------------------------------------------
      LOOP:  cpu time   31.9935: real time   64.2996

 eigenvalue-minimisations  :     0
 total energy-change (2. order) :-0.1404646E+02  (-0.3094812E+01)
 number of electron      73.9999979 magnetization       0.0000000
 augmentation part       21.6661969 magnetization       0.0007610

 Free energy of the ion-electron system (eV)
  ---------------------------------------------------
  alpha Z        PSCENC =       254.99681063
  Ewald energy   TEWEN  =     -4763.26635216
  -Hartree energ DENC   =     -2189.02848966
  -exchange      EXHF   =       228.08523262
  -V(xc)+E(xc)   XCENC  =       272.80567409
  PAW double counting   =      7814.46590307    -7966.50128938
  entropy T*S    EENTRO =         0.00000000
  eigenvalues    EBANDS =     -1174.94481946
  atomic energy  EATOM  =      7426.07396366
  ---------------------------------------------------
  free energy    TOTEN  =       -97.31336660 eV

  energy without entropy =      -97.31336660  energy(sigma->0) =      -97.31336660
  exchange ACFDT corr.  =         0.00000000  see jH, gK, PRB 81, 115126


--------------------------------------------------------------------------------------------------------




----------------------------------------- Iteration    1(  10)  ---------------------------------------


    POTLOK:  cpu time    0.0414: real time    0.0814
    SETDIJ:  cpu time    0.1726: real time    0.3455
    TRIAL :  cpu time   30.9895: real time   62.4688
 BZINTS: Fermi energy:  2.866026; 74.000000 electrons
         Band energy:***********;  BLOECHL correction:  0.000000
    CORREC:  cpu time    0.0134: real time    0.0228
    CHARGE:  cpu time    0.0154: real time    0.0348
    --------------------------------------------
      LOOP:  cpu time   31.2334: real time   62.9569

 eigenvalue-minimisations  :     0
 total energy-change (2. order) :-0.9230134E+00  (-0.3623450E+01)
 number of electron      73.9999979 magnetization       0.0000000
 augmentation part       22.0065547 magnetization       0.0005163

 Free energy of the ion-electron system (eV)
  ---------------------------------------------------
  alpha Z        PSCENC =       254.99681063
  Ewald energy   TEWEN  =     -4763.26635216
  -Hartree energ DENC   =     -2161.12940436
  -exchange      EXHF   =       228.72674865
  -V(xc)+E(xc)   XCENC  =       272.67717279
  PAW double counting   =      7664.22963786    -7812.19019352
  entropy T*S    EENTRO =         0.00000000
  eigenvalues    EBANDS =     -1208.35476357
  atomic energy  EATOM  =      7426.07396366
  ---------------------------------------------------
  free energy    TOTEN  =       -98.23638001 eV

  energy without entropy =      -98.23638001  energy(sigma->0) =      -98.23638001
  exchange ACFDT corr.  =         0.00000000  see jH, gK, PRB 81, 115126


--------------------------------------------------------------------------------------------------------




----------------------------------------- Iteration    1(  11)  ---------------------------------------


    POTLOK:  cpu time    0.0528: real time    0.1044
    SETDIJ:  cpu time    0.1623: real time    0.3251
    TRIAL :  cpu time   31.5420: real time   63.3905
 BZINTS: Fermi energy:  2.635421; 74.000000 electrons
         Band energy:***********;  BLOECHL correction:  0.000000
    CORREC:  cpu time    0.0126: real time    0.0241
    CHARGE:  cpu time    0.0374: real time    0.0710
    --------------------------------------------
      LOOP:  cpu time   31.8088: real time   63.9175

 eigenvalue-minimisations  :     0
 total energy-change (2. order) :-0.1457595E+01  (-0.3873112E+00)
 number of electron      73.9999979 magnetization       0.0000000
 augmentation part       22.0675280 magnetization       0.0004571

 Free energy of the ion-electron system (eV)
  ---------------------------------------------------
  alpha Z        PSCENC =       254.99681063
  Ewald energy   TEWEN  =     -4763.26635216
  -Hartree energ DENC   =     -2202.60669992
  -exchange      EXHF   =       228.61001717
  -V(xc)+E(xc)   XCENC  =       273.55128440
  PAW double counting   =      7658.37686160    -7813.02813684
  entropy T*S    EENTRO =         0.00000000
  eigenvalues    EBANDS =     -1162.40172307
  atomic energy  EATOM  =      7426.07396366
  ---------------------------------------------------
  free energy    TOTEN  =       -99.69397453 eV

  energy without entropy =      -99.69397453  energy(sigma->0) =      -99.69397453
  exchange ACFDT corr.  =         0.00000000  see jH, gK, PRB 81, 115126


--------------------------------------------------------------------------------------------------------




----------------------------------------- Iteration    1(  12)  ---------------------------------------


    POTLOK:  cpu time    0.0387: real time    0.0818
    SETDIJ:  cpu time    0.1951: real time    0.3853
    TRIAL :  cpu time   31.2330: real time   62.5894
 BZINTS: Fermi energy:  2.369897; 74.000000 electrons
         Band energy:***********;  BLOECHL correction:  0.000000
    CORREC:  cpu time    0.0164: real time    0.0331
    CHARGE:  cpu time    0.0176: real time    0.0343
    --------------------------------------------
      LOOP:  cpu time   31.5017: real time   63.1253

 eigenvalue-minimisations  :     0
 total energy-change (2. order) :-0.1151471E+00  (-0.5851839E+00)
 number of electron      73.9999979 magnetization       0.0000000
 augmentation part       21.9353266 magnetization       0.0004123

 Free energy of the ion-electron system (eV)
  ---------------------------------------------------
  alpha Z        PSCENC =       254.99681063
  Ewald energy   TEWEN  =     -4763.26635216
  -Hartree energ DENC   =     -2215.66174424
  -exchange      EXHF   =       228.60342612
  -V(xc)+E(xc)   XCENC  =       273.79658775
  PAW double counting   =      7648.56518536    -7804.98886959
  entropy T*S    EENTRO =         0.00000000
  eigenvalues    EBANDS =     -1147.92812919
  atomic energy  EATOM  =      7426.07396366
  ---------------------------------------------------
  free energy    TOTEN  =       -99.80912166 eV

  energy without entropy =      -99.80912166  energy(sigma->0) =      -99.80912166
  exchange ACFDT corr.  =         0.00000000  see jH, gK, PRB 81, 115126


--------------------------------------------------------------------------------------------------------




----------------------------------------- Iteration    1(  13)  ---------------------------------------


    POTLOK:  cpu time    0.0516: real time    0.1017
    SETDIJ:  cpu time    0.1784: real time    0.3573
    TRIAL :  cpu time   31.8223: real time   63.9013
 BZINTS: Fermi energy:  2.206116; 74.000000 electrons
         Band energy:***********;  BLOECHL correction:  0.000000
    CORREC:  cpu time    0.0066: real time    0.0076
    CHARGE:  cpu time    0.0326: real time    0.0719
    --------------------------------------------
      LOOP:  cpu time   32.0924: real time   64.4430

 eigenvalue-minimisations  :     0
 total energy-change (2. order) :-0.2885963E+00  (-0.7199068E-01)
 number of electron      73.9999979 magnetization       0.0000000
 augmentation part       21.8848929 magnetization       0.0003241

 Free energy of the ion-electron system (eV)
  ---------------------------------------------------
  alpha Z        PSCENC =       254.99681063
  Ewald energy   TEWEN  =     -4763.26635216
  -Hartree energ DENC   =     -2203.13461065
  -exchange      EXHF   =       228.83139444
  -V(xc)+E(xc)   XCENC  =       273.63426560
  PAW double counting   =      7618.31764365    -7772.65840525
  entropy T*S    EENTRO =         0.00000000
  eigenvalues    EBANDS =     -1162.89242788
  atomic energy  EATOM  =      7426.07396366
  ---------------------------------------------------
  free energy    TOTEN  =      -100.09771796 eV

  energy without entropy =     -100.09771796  energy(sigma->0) =     -100.09771796
  exchange ACFDT corr.  =         0.00000000  see jH, gK, PRB 81, 115126


--------------------------------------------------------------------------------------------------------




----------------------------------------- Iteration    1(  14)  ---------------------------------------


    POTLOK:  cpu time    0.0373: real time    0.0786
    SETDIJ:  cpu time    0.1773: real time    0.3495
    TRIAL :  cpu time   31.2612: real time   62.8175
 BZINTS: Fermi energy:  2.194224; 74.000000 electrons
         Band energy:***********;  BLOECHL correction:  0.000000
    CORREC:  cpu time    0.0078: real time    0.0134
    CHARGE:  cpu time    0.0218: real time    0.0458
    --------------------------------------------
      LOOP:  cpu time   31.5068: real time   63.3064

 eigenvalue-minimisations  :     0
 total energy-change (2. order) :-0.1924748E-01  (-0.7987229E-01)
 number of electron      73.9999979 magnetization       0.0000000
 augmentation part       21.9149407 magnetization       0.0002186

 Free energy of the ion-electron system (eV)
  ---------------------------------------------------
  alpha Z        PSCENC =       254.99681063
  Ewald energy   TEWEN  =     -4763.26635216
  -Hartree energ DENC   =     -2199.64811823
  -exchange      EXHF   =       229.02754887
  -V(xc)+E(xc)   XCENC  =       273.66587315
  PAW double counting   =      7616.59683071    -7770.10517580
  entropy T*S    EENTRO =         0.00000000
  eigenvalues    EBANDS =     -1167.45834628
  atomic energy  EATOM  =      7426.07396366
  ---------------------------------------------------
  free energy    TOTEN  =      -100.11696544 eV

  energy without entropy =     -100.11696544  energy(sigma->0) =     -100.11696544
  exchange ACFDT corr.  =         0.00000000  see jH, gK, PRB 81, 115126


--------------------------------------------------------------------------------------------------------




----------------------------------------- Iteration    1(  15)  ---------------------------------------


    POTLOK:  cpu time    0.0484: real time    0.0983
    SETDIJ:  cpu time    0.1942: real time    0.3901
    TRIAL :  cpu time   31.3284: real time   63.2097
 BZINTS: Fermi energy:  2.141002; 74.000000 electrons
         Band energy:***********;  BLOECHL correction:  0.000000
    CORREC:  cpu time    0.0066: real time    0.0177
    CHARGE:  cpu time    0.0179: real time    0.0304
    --------------------------------------------
      LOOP:  cpu time   31.5965: real time   63.7483

 eigenvalue-minimisations  :     0
 total energy-change (2. order) :-0.4871869E-01  (-0.2097881E-01)
 number of electron      73.9999979 magnetization       0.0000000
 augmentation part       21.9349011 magnetization       0.0001500

 Free energy of the ion-electron system (eV)
  ---------------------------------------------------
  alpha Z        PSCENC =       254.99681063
  Ewald energy   TEWEN  =     -4763.26635216
  -Hartree energ DENC   =     -2205.12475113
  -exchange      EXHF   =       229.10172526
  -V(xc)+E(xc)   XCENC  =       273.82857318
  PAW double counting   =      7633.77212209    -7787.79740213
  entropy T*S    EENTRO =         0.00000000
  eigenvalues    EBANDS =     -1161.75037354
  atomic energy  EATOM  =      7426.07396366
  ---------------------------------------------------
  free energy    TOTEN  =      -100.16568413 eV

  energy without entropy =     -100.16568413  energy(sigma->0) =     -100.16568413
  exchange ACFDT corr.  =         0.00000000  see jH, gK, PRB 81, 115126


--------------------------------------------------------------------------------------------------------




----------------------------------------- Iteration    1(  16)  ---------------------------------------


    POTLOK:  cpu time    0.0524: real time    0.1044
    SETDIJ:  cpu time    0.1737: real time    0.3478
    TRIAL :  cpu time   31.6189: real time   63.4280
 BZINTS: Fermi energy:  2.084980; 74.000000 electrons
         Band energy:***********;  BLOECHL correction:  0.000000
    CORREC:  cpu time    0.0066: real time    0.0179
    CHARGE:  cpu time    0.0237: real time    0.0431
    --------------------------------------------
      LOOP:  cpu time   31.8765: real time   63.9442

 eigenvalue-minimisations  :     0
 total energy-change (2. order) :-0.8884089E-02  (-0.1129585E-01)
 number of electron      73.9999979 magnetization       0.0000000
 augmentation part       21.9250850 magnetization       0.0001278

 Free energy of the ion-electron system (eV)
  ---------------------------------------------------
  alpha Z        PSCENC =       254.99681063
  Ewald energy   TEWEN  =     -4763.26635216
  -Hartree energ DENC   =     -2207.97809630
  -exchange      EXHF   =       229.11668270
  -V(xc)+E(xc)   XCENC  =       273.90559400
  PAW double counting   =      7644.61487116    -7798.99411810
  entropy T*S    EENTRO =         0.00000000
  eigenvalues    EBANDS =     -1158.64392381
  atomic energy  EATOM  =      7426.07396366
  ---------------------------------------------------
  free energy    TOTEN  =      -100.17456822 eV

  energy without entropy =     -100.17456822  energy(sigma->0) =     -100.17456822
  exchange ACFDT corr.  =         0.00000000  see jH, gK, PRB 81, 115126


--------------------------------------------------------------------------------------------------------




----------------------------------------- Iteration    1(  17)  ---------------------------------------


    POTLOK:  cpu time    0.0417: real time    0.0712
    SETDIJ:  cpu time    0.1712: real time    0.3430
    TRIAL :  cpu time   31.3660: real time   62.9275
 BZINTS: Fermi energy:  2.265773; 74.000000 electrons
         Band energy:***********;  BLOECHL correction:  0.000000
    CORREC:  cpu time    0.0076: real time    0.0078
    CHARGE:  cpu time    0.0226: real time    0.0535
    --------------------------------------------
      LOOP:  cpu time   31.6107: real time   63.4177

 eigenvalue-minimisations  :     0
 total energy-change (2. order) :-0.8331003E-02  (-0.6510484E-02)
 number of electron      73.9999979 magnetization       0.0000000
 augmentation part       21.9130354 magnetization       0.0001109

 Free energy of the ion-electron system (eV)
  ---------------------------------------------------
  alpha Z        PSCENC =       254.99681063
  Ewald energy   TEWEN  =     -4763.26635216
  -Hartree energ DENC   =     -2206.39682253
  -exchange      EXHF   =       229.12879549
  -V(xc)+E(xc)   XCENC  =       273.88663949
  PAW double counting   =      7642.80790607    -7797.02844942
  entropy T*S    EENTRO =         0.00000000
  eigenvalues    EBANDS =     -1160.38539046
  atomic energy  EATOM  =      7426.07396366
  ---------------------------------------------------
  free energy    TOTEN  =      -100.18289923 eV

  energy without entropy =     -100.18289923  energy(sigma->0) =     -100.18289923
  exchange ACFDT corr.  =         0.00000000  see jH, gK, PRB 81, 115126


--------------------------------------------------------------------------------------------------------




----------------------------------------- Iteration    1(  18)  ---------------------------------------


    POTLOK:  cpu time    0.0658: real time    0.1182
    SETDIJ:  cpu time    0.1507: real time    0.3017
    TRIAL :  cpu time   31.1996: real time   62.8455
 BZINTS: Fermi energy:  2.228162; 74.000000 electrons
         Band energy:***********;  BLOECHL correction:  0.000000
    CORREC:  cpu time    0.0076: real time    0.0114
    CHARGE:  cpu time    0.0161: real time    0.0368
    --------------------------------------------
      LOOP:  cpu time   31.4416: real time   63.3306

 eigenvalue-minimisations  :     0
 total energy-change (2. order) :-0.3868339E-02  (-0.2611839E-02)
 number of electron      73.9999979 magnetization       0.0000000
 augmentation part       21.9133617 magnetization       0.0000804

 Free energy of the ion-electron system (eV)
  ---------------------------------------------------
  alpha Z        PSCENC =       254.99681063
  Ewald energy   TEWEN  =     -4763.26635216
  -Hartree energ DENC   =     -2204.79913064
  -exchange      EXHF   =       229.13906427
  -V(xc)+E(xc)   XCENC  =       273.86364233
  PAW double counting   =      7638.87231897    -7792.88712591
  entropy T*S    EENTRO =         0.00000000
  eigenvalues    EBANDS =     -1162.17995872
  atomic energy  EATOM  =      7426.07396366
  ---------------------------------------------------
  free energy    TOTEN  =      -100.18676756 eV

  energy without entropy =     -100.18676756  energy(sigma->0) =     -100.18676756
  exchange ACFDT corr.  =         0.00000000  see jH, gK, PRB 81, 115126


--------------------------------------------------------------------------------------------------------




----------------------------------------- Iteration    1(  19)  ---------------------------------------


    POTLOK:  cpu time    0.0377: real time    0.0606
    SETDIJ:  cpu time    0.1743: real time    0.3488
    TRIAL :  cpu time   31.6041: real time   63.4042
 BZINTS: Fermi energy:  2.196685; 74.000000 electrons
         Band energy:***********;  BLOECHL correction:  0.000000
    CORREC:  cpu time    0.0108: real time    0.0233
    CHARGE:  cpu time    0.0159: real time    0.0307
    --------------------------------------------
      LOOP:  cpu time   31.8440: real time   63.8840

 eigenvalue-minimisations  :     0
 total energy-change (2. order) :-0.2200370E-02  (-0.2039210E-02)
 number of electron      73.9999979 magnetization       0.0000000
 augmentation part       21.9173666 magnetization       0.0000532

 Free energy of the ion-electron system (eV)
  ---------------------------------------------------
  alpha Z        PSCENC =       254.99681063
  Ewald energy   TEWEN  =     -4763.26635216
  -Hartree energ DENC   =     -2205.11561886
  -exchange      EXHF   =       229.14683746
  -V(xc)+E(xc)   XCENC  =       273.87809852
  PAW double counting   =      7638.65508224    -7792.67048759
  entropy T*S    EENTRO =         0.00000000
  eigenvalues    EBANDS =     -1161.88730184
  atomic energy  EATOM  =      7426.07396366
  ---------------------------------------------------
  free energy    TOTEN  =      -100.18896793 eV

  energy without entropy =     -100.18896793  energy(sigma->0) =     -100.18896793
  exchange ACFDT corr.  =         0.00000000  see jH, gK, PRB 81, 115126


--------------------------------------------------------------------------------------------------------




----------------------------------------- Iteration    1(  20)  ---------------------------------------


    POTLOK:  cpu time    0.0494: real time    0.0984
    SETDIJ:  cpu time    0.1760: real time    0.3522
    TRIAL :  cpu time   31.3284: real time   63.1101
 BZINTS: Fermi energy:  2.173567; 74.000000 electrons
         Band energy:***********;  BLOECHL correction:  0.000000
    CORREC:  cpu time    0.0124: real time    0.0265
    CHARGE:  cpu time    0.0158: real time    0.0290
    --------------------------------------------
      LOOP:  cpu time   31.5833: real time   63.6191

 eigenvalue-minimisations  :     0
 total energy-change (2. order) :-0.1629304E-02  (-0.1152910E-02)
 number of electron      73.9999979 magnetization       0.0000000
 augmentation part       21.9184202 magnetization       0.0000382

 Free energy of the ion-electron system (eV)
  ---------------------------------------------------
  alpha Z        PSCENC =       254.99681063
  Ewald energy   TEWEN  =     -4763.26635216
  -Hartree energ DENC   =     -2205.88368301
  -exchange      EXHF   =       229.15518252
  -V(xc)+E(xc)   XCENC  =       273.90212551
  PAW double counting   =      7639.76166405    -7793.83579996
  entropy T*S    EENTRO =         0.00000000
  eigenvalues    EBANDS =     -1161.09450848
  atomic energy  EATOM  =      7426.07396366
  ---------------------------------------------------
  free energy    TOTEN  =      -100.19059724 eV

  energy without entropy =     -100.19059724  energy(sigma->0) =     -100.19059724
  exchange ACFDT corr.  =         0.00000000  see jH, gK, PRB 81, 115126


--------------------------------------------------------------------------------------------------------




----------------------------------------- Iteration    1(  21)  ---------------------------------------


    POTLOK:  cpu time    0.0560: real time    0.1094
    SETDIJ:  cpu time    0.1679: real time    0.3360
    TRIAL :  cpu time   31.3471: real time   62.9960
 BZINTS: Fermi energy:  2.156183; 74.000000 electrons
[...]
      1     -51.7342      1.00000
      2     -51.7317      1.00000
      3     -51.7273      1.00000
      4     -47.1253      1.00000
      5     -47.1230      1.00000
      6     -47.0740      1.00000
      7     -43.3622      1.00000
      8     -43.3521      1.00000
      9     -43.3231      1.00000
     10     -42.9751      1.00000
     11     -16.7340      1.00000
     12     -16.2588      1.00000
     13     -15.9652      1.00000
     14     -15.9328      1.00000
     15     -15.8296      1.00000
     16     -15.8030      1.00000
     17      -3.5079      1.00000
     18      -3.3871      1.00000
     19      -2.8508      1.00000
     20      -2.6082      1.00000
     21      -2.3638      1.00000
     22      -2.3165      1.00000
     23      -2.0723      1.00000
     24      -1.5018      1.00000
     25      -1.1029      1.00000
     26      -0.7955      1.00000
     27      -0.3719      1.00000
     28      -0.0646      1.00000
     29       0.1612      1.00000
     30       0.3393      1.00000
     31       0.5478      1.00000
     32       0.7782      1.00000
     33       0.9290      1.00000
     34       1.1395      1.00000
     35       1.3178      1.00000
     36       1.5880      1.00000
     37       1.8251      1.00000
     38       5.8486      0.00000
     39       6.0954      0.00000
     40       6.8762      0.00000
     41       7.0036      0.00000
     42       7.2358      0.00000
     43       8.1480      0.00000
     44       8.3842      0.00000
     45      12.9352      0.00000
     46      13.5345      0.00000
     47      14.3210      0.00000
     48      14.7169      0.00000
     49      16.8840      0.00000
     50      17.1964      0.00000
     51      17.3355      0.00000
     52      17.7747      0.00000
     53      17.8995      0.00000
     54      18.2447      0.00000
     55      18.6277      0.00000
     56      19.4826      0.00000
     57      19.6252      0.00000
     58      20.0836      0.00000
     59      20.5170      0.00000
     60      20.6161      0.00000
     61      21.1294      0.00000
     62      21.2219      0.00000
     63      21.5558      0.00000
     64      21.8852      0.00000
     65      22.1805      0.00000
     66      23.5609      0.00000
     67      23.7770      0.00000
     68      24.3055      0.00000
     69      24.5021      0.00000
     70      25.5577      0.00000

 k-point    22 :       0.5000    0.2500    0.5000
  band No.  band energies     occupation 
      1     -51.7341      1.00000
      2     -51.7318      1.00000
      3     -51.7273      1.00000
      4     -47.1251      1.00000
      5     -47.1233      1.00000
      6     -47.0740      1.00000
      7     -43.3612      1.00000
      8     -43.3532      1.00000
      9     -43.3227      1.00000
     10     -42.9751      1.00000
     11     -16.7109      1.00000
     12     -16.2623      1.00000
     13     -16.0053      1.00000
     14     -15.9035      1.00000
     15     -15.8657      1.00000
     16     -15.7839      1.00000
     17      -3.4928      1.00000
     18      -3.3090      1.00000
     19      -2.9792      1.00000
     20      -2.6026      1.00000
     21      -2.3200      1.00000
     22      -2.1902      1.00000
     23      -2.0234      1.00000
     24      -1.5585      1.00000
     25      -1.1603      1.00000
     26      -0.7987      1.00000
     27      -0.3104      1.00000
     28      -0.0051      1.00000
     29       0.1411      1.00000
     30       0.4164      1.00000
     31       0.5316      1.00000
     32       0.7476      1.00000
     33       0.9601      1.00000
     34       1.1017      1.00000
     35       1.2093      1.00000
     36       1.5877      1.00000
     37       1.7144      1.00000
     38       5.7603      0.00000
     39       5.9980      0.00000
     40       6.8966      0.00000
     41       7.0480      0.00000
     42       7.1737      0.00000
     43       8.0911      0.00000
     44       8.3218      0.00000
     45      13.3430      0.00000
     46      13.6405      0.00000
     47      14.7162      0.00000
     48      15.4325      0.00000
     49      15.9320      0.00000
     50      16.9059      0.00000
     51      17.4240      0.00000
     52      17.6521      0.00000
     53      17.7888      0.00000
     54      18.2874      0.00000
     55      18.9809      0.00000
     56      19.2517      0.00000
     57      19.5117      0.00000
     58      20.0759      0.00000
     59      20.5101      0.00000
     60      20.6167      0.00000
     61      20.9951      0.00000
     62      21.2101      0.00000
     63      21.3965      0.00000
     64      21.9306      0.00000
     65      22.4418      0.00000
     66      23.4418      0.00000
     67      23.9428      0.00000
     68      24.3991      0.00000
     69      24.6549      0.00000
     70      25.7008      0.00000

 k-point    23 :      -0.2500    0.2500    0.5000
  band No.  band energies     occupation 
      1     -51.7341      1.00000
      2     -51.7319      1.00000
      3     -51.7272      1.00000
      4     -47.1249      1.00000
      5     -47.1233      1.00000
      6     -47.0741      1.00000
      7     -43.3679      1.00000
      8     -43.3487      1.00000
      9     -43.3202      1.00000
     10     -42.9753      1.00000
     11     -17.0071      1.00000
     12     -16.0753      1.00000
     13     -15.9600      1.00000
     14     -15.8466      1.00000
     15     -15.8347      1.00000
     16     -15.7627      1.00000
     17      -3.4809      1.00000
     18      -3.2865      1.00000
     19      -3.1239      1.00000
     20      -2.4301      1.00000
     21      -2.3940      1.00000
     22      -2.0850      1.00000
     23      -1.7780      1.00000
     24      -1.4471      1.00000
     25      -1.4125      1.00000
     26      -0.5432      1.00000
     27      -0.3458      1.00000
     28      -0.3443      1.00000
     29      -0.0197      1.00000
     30       0.1715      1.00000
     31       0.4784      1.00000
     32       0.7228      1.00000
     33       0.9543      1.00000
     34       1.0369      1.00000
     35       1.3867      1.00000
     36       1.4903      1.00000
     37       1.7487      1.00000
     38       5.8553      0.00000
     39       5.9935      0.00000
     40       6.9586      0.00000
     41       7.0980      0.00000
     42       7.1707      0.00000
     43       8.1069      0.00000
     44       8.2934      0.00000
     45      13.5058      0.00000
     46      13.6914      0.00000
     47      14.9840      0.00000
     48      15.0332      0.00000
     49      16.0117      0.00000
     50      16.5521      0.00000
     51      16.9888      0.00000
     52      17.3075      0.00000
     53      17.8740      0.00000
     54      18.2101      0.00000
     55      19.1669      0.00000
     56      19.5708      0.00000
     57      19.9912      0.00000
     58      20.1978      0.00000
     59      20.5211      0.00000
     60      21.0905      0.00000
     61      21.2639      0.00000
     62      21.3733      0.00000
     63      22.1482      0.00000
     64      22.3550      0.00000
     65      22.7053      0.00000
     66      23.1077      0.00000
     67      23.4823      0.00000
     68      24.9367      0.00000
     69      26.6673      0.00000
     70      27.0744      0.00000

 k-point    24 :       0.5000    0.5000    0.5000
  band No.  band energies     occupation 
      1     -51.7340      1.00000
      2     -51.7319      1.00000
      3     -51.7273      1.00000
      4     -47.1249      1.00000
      5     -47.1236      1.00000
      6     -47.0740      1.00000
      7     -43.3584      1.00000
      8     -43.3563      1.00000
      9     -43.3223      1.00000
     10     -42.9752      1.00000
     11     -16.6753      1.00000
     12     -16.2916      1.00000
     13     -16.0172      1.00000
     14     -15.9099      1.00000
     15     -15.8877      1.00000
     16     -15.7578      1.00000
     17      -3.6058      1.00000
     18      -3.3521      1.00000
     19      -2.8894      1.00000
     20      -2.3486      1.00000
     21      -2.2686      1.00000
     22      -2.0501      1.00000
     23      -1.9798      1.00000
     24      -1.5027      1.00000
     25      -1.4349      1.00000
     26      -0.9501      1.00000
     27      -0.4308      1.00000
     28       0.0240      1.00000
     29       0.2728      1.00000
     30       0.2808      1.00000
     31       0.6159      1.00000
     32       0.7908      1.00000
     33       0.9588      1.00000
     34       1.0908      1.00000
     35       1.3798      1.00000
     36       1.4222      1.00000
     37       1.6625      1.00000
     38       5.7175      0.00000
     39       5.8311      0.00000
     40       6.8922      0.00000
     41       6.9615      0.00000
     42       7.2260      0.00000
     43       8.0244      0.00000
     44       8.2131      0.00000
     45      14.1606      0.00000
     46      14.7726      0.00000
     47      14.9074      0.00000
     48      14.9136      0.00000
     49      15.6738      0.00000
     50      15.7877      0.00000
     51      17.6507      0.00000
     52      17.7994      0.00000
     53      17.9097      0.00000
     54      18.0959      0.00000
     55      18.6358      0.00000
     56      19.0845      0.00000
     57      19.3960      0.00000
     58      20.1637      0.00000
     59      20.7012      0.00000
     60      20.8160      0.00000
     61      20.9676      0.00000
     62      21.1729      0.00000
     63      21.6745      0.00000
     64      21.8251      0.00000
     65      22.8358      0.00000
     66      23.7479      0.00000
     67      24.0524      0.00000
     68      24.6298      0.00000
     69      25.5557      0.00000
     70      26.7401      0.00000


--------------------------------------------------------------------------------------------------------


 soft charge-density along one line, spin component           1
         0         1         2         3         4         5         6         7         8         9
 total charge-density along one line
 
 soft charge-density along one line, spin component           2
         0         1         2         3         4         5         6         7         8         9
 total charge-density along one line
 
 pseudopotential strength for first ion, spin component:           1
-34.659   4.883   0.000   0.000  -0.000
  4.883 -11.491  -0.000  -0.000   0.000
  0.000  -0.000   0.037   0.000   0.000
  0.000  -0.000   0.000   0.037   0.000
 -0.000   0.000   0.000   0.000   0.037
 pseudopotential strength for first ion, spin component:           2
-34.659   4.883  -0.000   0.000   0.000
  4.883 -11.491   0.000   0.000  -0.000
 -0.000   0.000   0.037   0.000   0.000
  0.000   0.000   0.000   0.037   0.000
  0.000  -0.000   0.000   0.000   0.037
 total augmentation occupancy for first ion, spin component:           1
  1.999  -0.032   0.000  -0.000   0.000
 -0.032   0.676   0.000  -0.000  -0.000
  0.000   0.000   0.031  -0.001  -0.001
 -0.000  -0.000  -0.001   0.027  -0.000
  0.000  -0.000  -0.001  -0.000   0.031
 total augmentation occupancy for first ion, spin component:           2
  0.000   0.000   0.000   0.000  -0.000
  0.000  -0.000   0.000   0.000  -0.000
  0.000   0.000  -0.000  -0.000   0.000
  0.000   0.000  -0.000   0.000   0.000
 -0.000  -0.000   0.000   0.000  -0.000


------------------------ aborting loop because EDIFF is reached ----------------------------------------


 


 total charge     
 
# of ion     s       p       d       tot
----------------------------------------
  1        2.020   0.064   0.000   2.083
  2        2.016   0.054   0.000   2.070
  3        2.015   0.053   0.000   2.068
  4        2.015   0.053   0.000   2.068
  5        0.360   6.458   4.764  11.582
  6        0.360   6.458   4.764  11.582
  7        1.560   3.496   0.000   5.056
  8        1.560   3.496   0.000   5.056
  9        1.562   3.491   0.000   5.053
 10        1.563   3.490   0.000   5.053
 11        1.562   3.491   0.000   5.053
 12        1.563   3.490   0.000   5.053
------------------------------------------------
tot       18.155  34.094   9.527  61.776
 


 magnetization (x)
 
# of ion     s       p       d       tot
----------------------------------------
  1       -0.000  -0.000   0.000  -0.000
  2       -0.000  -0.000   0.000  -0.000
  3        0.000   0.000   0.000   0.000
  4       -0.000  -0.000   0.000  -0.000
  5        0.013   0.029   2.973   3.014
  6       -0.013  -0.029  -2.973  -3.014
  7        0.000   0.001   0.000   0.001
  8       -0.000  -0.001   0.000  -0.001
  9       -0.000  -0.002   0.000  -0.002
 10       -0.000  -0.001   0.000  -0.001
 11        0.000   0.002   0.000   0.002
 12        0.000   0.001   0.000   0.001
------------------------------------------------
tot       -0.000   0.000  -0.000   0.000
 
    FORLOC:  cpu time    0.0092: real time    0.0166
    FORHF :  cpu time   49.4159: real time   99.6108
    FORNL :  cpu time    0.0421: real time    0.0851
    FORCOR:  cpu time    0.2050: real time    0.4100
    OFIELD:  cpu time    0.0009: real time    0.0001

 VOLUME and BASIS-vectors are now :
 -----------------------------------------------------------------------------
  energy-cutoff  :      600.00
  volume of cell :      103.07
      direct lattice vectors                 reciprocal lattice vectors
     4.983147038  0.001355973  0.000318052     0.200649528  0.115370897 -0.070867869
    -2.483828799  4.319994298  0.000318052    -0.000058458  0.231453393 -0.070867869
     0.847900148  1.466029206  4.787329897    -0.000013327 -0.000023042  0.208894123

  length of vectors
     4.983147232  4.983147232  5.078061031     0.242059769  0.242059769  0.208894124


 FORCES acting on ions:
    Electron-Ion                     Ewald-Force                    Non-Local-Force
 -----------------------------------------------------------------------------------------------
   0.251E-05 0.980E-05 -.126E-05   -.905E-05 -.156E-04 0.537E-05   -.212E-21 -.424E-21 -.424E-21
   -.716E-05 -.115E-05 0.348E-05   0.153E-05 0.265E-05 -.549E-05   0.106E-21 -.635E-21 0.847E-21
   0.284E+02 -.164E+02 -.316E-04   -.276E+02 0.160E+02 0.113E-04   -.764E+00 0.442E+00 -.272E-13
   -.284E+02 0.164E+02 0.174E-04   0.276E+02 -.160E+02 0.113E-04   0.764E+00 -.442E+00 0.272E-13
   0.103E+02 -.596E+01 0.346E-05   -.100E+02 0.580E+01 -.468E-06   -.310E+00 0.180E+00 -.111E-13
   -.103E+02 0.596E+01 -.342E-05   0.100E+02 -.580E+01 -.468E-06   0.310E+00 -.180E+00 0.111E-13
   0.656E+02 0.113E+03 -.256E+03   -.698E+02 -.121E+03 0.268E+03   0.379E+01 0.655E+01 -.110E+02
   -.656E+02 -.113E+03 0.256E+03   0.698E+02 0.121E+03 -.268E+03   -.379E+01 -.655E+01 0.110E+02
   -.135E+03 0.189E+01 -.245E+03   0.144E+03 -.208E+01 0.258E+03   -.796E+01 0.174E+00 -.121E+02
   -.690E+02 0.116E+03 0.245E+03   0.735E+02 -.124E+03 -.258E+03   -.412E+01 0.681E+01 0.121E+02
   0.135E+03 -.189E+01 0.245E+03   -.144E+03 0.208E+01 -.258E+03   0.796E+01 -.174E+00 0.121E+02
   0.690E+02 -.116E+03 -.245E+03   -.735E+02 0.124E+03 0.258E+03   0.412E+01 -.681E+01 -.121E+02
 -----------------------------------------------------------------------------------------------
   0.210E-04 0.222E-03 -.343E-03   0.284E-13 0.000E+00 -.568E-13   -.178E-14 0.888E-15 0.178E-14
 
 
 POSITION                                       TOTAL-FORCE (eV/Angst)
 -----------------------------------------------------------------------------------
      1.24966      2.16068      0.00032        -0.000000      0.000000      0.000000
      0.42395      0.73301      2.39366        -0.000000      0.000000      0.000000
      2.88199      2.19480      2.39398         0.020658     -0.011948      0.000000
      0.46523      3.59258      2.39398        -0.020658      0.011948     -0.000000
     -1.23609      3.59834      0.00032         0.020103     -0.011627      0.000000
      3.73541      0.72301      0.00032        -0.020103      0.011627     -0.000000
      2.14599      3.71044      1.09667         0.194039      0.335496     -0.636187
      1.20123      2.07694      3.69130        -0.194039     -0.335496      0.636187
     -0.53152      2.16180      1.07494        -0.400737      0.007495     -0.646161
      1.20834      5.17004      3.71302        -0.206337      0.343616      0.646161
      3.87874      3.62558      3.71302         0.400737     -0.007495      0.646161
      2.13887      0.61734      1.07494         0.206337     -0.343616     -0.646161
 -----------------------------------------------------------------------------------
    total drift:                                0.000021      0.000222     -0.000343


--------------------------------------------------------------------------------------------------------



  FREE ENERGIE OF THE ION-ELECTRON SYSTEM (eV)
  ---------------------------------------------------
  free  energy   TOTEN  =      -100.19424376 eV

  energy  without entropy=     -100.19424376  energy(sigma->0) =     -100.19424376
 


--------------------------------------------------------------------------------------------------------


    POTLOK:  cpu time    0.2162: real time    0.4348


--------------------------------------------------------------------------------------------------------


 writing wavefunctions
     LOOP+:  cpu time  815.0932: real time 1639.3841
    4ORBIT:  cpu time    0.0000: real time    0.0000
 


 total charge     
 
# of ion     s       p       d       tot
----------------------------------------
  1        2.020   0.064   0.000   2.083
  2        2.016   0.054   0.000   2.070
  3        2.015   0.053   0.000   2.068
  4        2.015   0.053   0.000   2.068
  5        0.360   6.458   4.764  11.582
  6        0.360   6.458   4.764  11.582
  7        1.560   3.496   0.000   5.056
  8        1.560   3.496   0.000   5.056
  9        1.562   3.491   0.000   5.053
 10        1.563   3.490   0.000   5.053
 11        1.562   3.491   0.000   5.053
 12        1.563   3.490   0.000   5.053
------------------------------------------------
tot       18.155  34.094   9.527  61.776
 


 magnetization (x)
 
# of ion     s       p       d       tot
----------------------------------------
  1       -0.000  -0.000   0.000  -0.000
  2       -0.000  -0.000   0.000  -0.000
  3        0.000   0.000   0.000   0.000
  4       -0.000  -0.000   0.000  -0.000
  5        0.013   0.029   2.973   3.014
  6       -0.013  -0.029  -2.973  -3.014
  7        0.000   0.001   0.000   0.001
  8       -0.000  -0.001   0.000  -0.001
  9       -0.000  -0.002   0.000  -0.002
 10       -0.000  -0.001   0.000  -0.001
 11        0.000   0.002   0.000   0.002
 12        0.000   0.001   0.000   0.001
------------------------------------------------
tot       -0.000   0.000  -0.000   0.000
 
 BZINTS: Fermi energy:  2.059862; 74.000000 electrons
         Band energy:***********;  BLOECHL correction:  0.000000

 total amount of memory used by VASP on root node    88767. kBytes
========================================================================

   base      :      30000. kBytes
   nonl-proj :      36590. kBytes
   fftplans  :        360. kBytes
   grid      :       2839. kBytes
   one-center:        373. kBytes
   HF        :        194. kBytes
   nonlr-proj:       1962. kBytes
   wavefun   :      16449. kBytes
 
  
  
 General timing and accounting informations for this job:
 ========================================================
  
                  Total CPU time used (sec):      840.006
                            User time (sec):      788.195
                          System time (sec):       51.811
                         Elapsed time (sec):     1692.202
  
                   Maximum memory used (kb):      270308.
                   Average memory used (kb):           0.
  
                          Minor page faults:       811331
                          Major page faults:            0
                 Voluntary context switches:         3364
