 vasp.5.4.4.18Apr17-6-g9f103f2a35 (build Dec 07 2017 12:23:07) complex          
  
 executed on     UA-Leibniz-2016b date 2018.11.16  19:08:06
 running on   28 total cores
 distrk:  each k-point on   28 cores,    1 groups
 distr:  one band on NCORES_PER_BAND=   1 cores,   28 groups


--------------------------------------------------------------------------------------------------------


 INCAR:
 POTCAR:    PAW_PBE Au 04Oct2007                  

 ----------------------------------------------------------------------------- 
|                                                                             |
|           W    W    AA    RRRRR   N    N  II  N    N   GGGG   !!!           |
|           W    W   A  A   R    R  NN   N  II  NN   N  G    G  !!!           |
|           W    W  A    A  R    R  N N  N  II  N N  N  G       !!!           |
|           W WW W  AAAAAA  RRRRR   N  N N  II  N  N N  G  GGG   !            |
|           WW  WW  A    A  R   R   N   NN  II  N   NN  G    G                |
|           W    W  A    A  R    R  N    N  II  N    N   GGGG   !!!           |
|                                                                             |
|      For optimal performance we recommend to set                            |
|        NCORE= 4 - approx SQRT( number of cores)                             |
|      NCORE specifies how many cores store one orbital (NPAR=cpu/NCORE).     |
|      This setting can  greatly improve the performance of VASP for DFT.     |
|      The default,   NCORE=1            might be grossly inefficient         |
|      on modern multi-core architectures or massively parallel machines.     |
|      Do your own testing !!!!                                               |
|      Unfortunately you need to use the default for GW and RPA calculations. |
|      (for HF NCORE is supported but not extensively tested yet)             |
|                                                                             |
 ----------------------------------------------------------------------------- 

 POTCAR:    PAW_PBE Au 04Oct2007                  
   VRHFIN =Au: s1d10                                                            
   LEXCH  = PE                                                                  
   EATOM  =   926.0867 eV,   68.0654 Ry                                         
                                                                                
   TITEL  = PAW_PBE Au 04Oct2007                                                
   LULTRA =        F    use ultrasoft PP ?                                      
   IUNSCR =        1    unscreen: 0-lin 1-nonlin 2-no                           
   RPACOR =    2.330    partial core radius                                     
   POMASS =  196.966; ZVAL   =   11.000    mass and valenz                      
   RCORE  =    2.500    outmost cutoff radius                                   
   RWIGS  =    2.840; RWIGS  =    1.503    wigner-seitz radius (au A)           
   ENMAX  =  229.943; ENMIN  =  172.457 eV                                      
   ICORE  =        3    local potential                                         
   LCOR   =        T    correct aug charges                                     
   LPAW   =        T    paw PP                                                  
   EAUG   =  356.670                                                            
   DEXC   =    0.000                                                            
   RMAX   =    2.562    core radius for proj-oper                               
   RAUG   =    1.300    factor for augmentation sphere                          
   RDEP   =    2.598    radius for radial grids                                 
   RDEPT  =    2.193    core radius for aug-charge                              
                                                                                
   Atomic configuration                                                         
   16 entries                                                                   
     n  l   j            E        occ.                                          
     1  0  0.50    -80748.5001   2.0000                                         
     2  0  0.50    -14244.7466   2.0000                                         
     2  1  1.50    -12310.9591   6.0000                                         
     3  0  0.50     -3362.1768   2.0000                                         
     3  1  1.50     -2801.5463   6.0000                                         
     3  2  2.50     -2203.8206  10.0000                                         
     4  0  0.50      -729.8168   2.0000                                         
     4  1  1.50      -546.0527   6.0000                                         
     4  2  2.50      -325.7302  10.0000                                         
     4  3  3.50       -81.1472  14.0000                                         
     5  0  0.50      -108.3201   2.0000                                         
     5  1  1.50       -59.7479   6.0000                                         
     5  2  2.50        -6.8783  10.0000                                         
     6  0  0.50        -5.7602   1.0000                                         
     6  1  1.50        -6.8029   0.0000                                         
     5  3  2.50        -1.3606   0.0000                                         
   Description                                                                  
     l       E           TYP  RCUT    TYP  RCUT                                 
     2     -6.8782861     23  2.500                                             
     2     -8.2388687     23  2.500                                             
     0     -5.7601759     23  2.500                                             
     0     -0.8493231     23  2.500                                             
     1     -2.7211652     23  2.500                                             
     1     27.2116520     23  2.500                                             
     3     -1.3605826     23  2.500                                             
  local pseudopotential read in
  partial core-charges read in
  partial kinetic energy density read in
  atomic valenz-charges read in
  non local Contribution for L=           2  read in
    real space projection operators read in
  non local Contribution for L=           2  read in
    real space projection operators read in
  non local Contribution for L=           0  read in
    real space projection operators read in
  non local Contribution for L=           0  read in
    real space projection operators read in
  non local Contribution for L=           1  read in
    real space projection operators read in
  non local Contribution for L=           1  read in
    real space projection operators read in
    PAW grid and wavefunctions read in
 
   number of l-projection  operators is LMAX  =           6
   number of lm-projection operators is LMMAX =          18
 

 ----------------------------------------------------------------------------- 
|                                                                             |
|  ADVICE TO THIS USER RUNNING 'VASP/VAMP'   (HEAR YOUR MASTER'S VOICE ...):  |
|                                                                             |
|      You have a (more or less) 'small supercell' and for smaller cells      |
|      it is recommended  to use the reciprocal-space projection scheme!      |
|      The real space optimization is not  efficient for small cells and it   |
|      is also less accurate ...                                              |
|      Therefore set LREAL=.FALSE. in the  INCAR file                         |
|                                                                             |
 ----------------------------------------------------------------------------- 

 Optimization of the real space projectors (new method)

 maximal supplied QI-value         = 15.12
 optimisation between [QCUT,QGAM] = [ 11.34, 22.83] = [ 36.00,145.93] Ry 
 Optimized for a Real-space Cutoff    1.52 Angstroem

   l    n(q)    QCUT    max X(q) W(low)/X(q) W(high)/X(q)  e(spline) 
   2      9    11.338    60.898    0.19E-03    0.40E-04    0.24E-06
   2      9    11.338    58.894    0.19E-03    0.40E-04    0.25E-06
   0     10    11.338   109.617    0.47E-04    0.50E-05    0.16E-06
   0     10    11.338    75.026    0.46E-04    0.49E-05    0.16E-06
   1     10    11.338    16.344    0.14E-04    0.87E-04    0.12E-06
   1     10    11.338    10.160    0.10E-04    0.70E-04    0.10E-06
  PAW_PBE Au 04Oct2007                  :
 energy of atom  1       EATOM= -926.0867
 kinetic energy error for atom=    0.0042 (will be added to EATOM!!)
 
 
 POSCAR: Au4                                     
  positions in direct lattice
  No initial velocities read in
 exchange correlation table for  LEXCH =        8
   RHO(1)=    0.500       N(1)  =     2000
   RHO(2)=  100.500       N(2)  =     4000
 


--------------------------------------------------------------------------------------------------------


 ion  position               nearest neighbor table
   1  0.000  0.000  0.000-   2 2.94   3 2.94   4 2.94   3 2.94   4 2.94   2 2.94   4 2.94   4 2.94
                             2 2.94   3 2.94   3 2.94   2 2.94
   2  0.500  0.500  0.000-   1 2.94   3 2.94   4 2.94   3 2.94   4 2.94   1 2.94   3 2.94   3 2.94
                             1 2.94   4 2.94   4 2.94   1 2.94
   3  0.500  0.000  0.500-   1 2.94   2 2.94   4 2.94   1 2.94   2 2.94   2 2.94   4 2.94   2 2.94
                             1 2.94   4 2.94   1 2.94   4 2.94
   4  0.000  0.500  0.500-   1 2.94   2 2.94   3 2.94   1 2.94   2 2.94   1 2.94   3 2.94   1 2.94
                             2 2.94   3 2.94   2 2.94   3 2.94
 
  LATTYP: Found a simple cubic cell.
 ALAT       =     4.1525980000
  
  Lattice vectors:
  
 A1 = (   4.1525980000,   0.0000000000,   0.0000000000)
 A2 = (   0.0000000000,   4.1525980000,   0.0000000000)
 A3 = (   0.0000000000,   0.0000000000,   4.1525980000)


Analysis of symmetry for initial positions (statically):
=====================================================================
 Subroutine PRICEL returns following result:
 
  LATTYP: Found a face centered cubic cell.
 ALAT       =     4.1525980000
  
  Lattice vectors:
  
 A1 = (   2.0762990000,   2.0762990000,   0.0000000000)
 A2 = (   2.0762990000,   0.0000000000,  -2.0762990000)
 A3 = (   0.0000000000,   2.0762990000,  -2.0762990000)
 
   4 primitive cells build up your supercell.
 

 Routine SETGRP: Setting up the symmetry group for a 
 simple cubic supercell.


 Subroutine GETGRP returns: Found 48 space group operations
 (whereof 48 operations were pure point group operations)
 out of a pool of 48 trial point group operations.


The static configuration has the point symmetry O_h .


Analysis of symmetry for dynamics (positions and initial velocities):
=====================================================================
 Subroutine PRICEL returns following result:
 
  LATTYP: Found a face centered cubic cell.
 ALAT       =     4.1525980000
  
  Lattice vectors:
  
 A1 = (   2.0762990000,   2.0762990000,   0.0000000000)
 A2 = (   2.0762990000,   0.0000000000,  -2.0762990000)
 A3 = (   0.0000000000,   2.0762990000,  -2.0762990000)
 
   4 primitive cells build up your supercell.
 

 Routine SETGRP: Setting up the symmetry group for a 
 simple cubic supercell.


 Subroutine GETGRP returns: Found 48 space group operations
 (whereof 48 operations were pure point group operations)
 out of a pool of 48 trial point group operations.


The dynamic configuration has the point symmetry O_h .


Analysis of structural, dynamic, and magnetic symmetry:
=====================================================================
 Subroutine PRICEL returns following result:
 
  LATTYP: Found a face centered cubic cell.
 ALAT       =     4.1525980000
  
  Lattice vectors:
  
 A1 = (   2.0762990000,   2.0762990000,   0.0000000000)
 A2 = (   2.0762990000,   0.0000000000,  -2.0762990000)
 A3 = (   0.0000000000,   2.0762990000,  -2.0762990000)
 
   4 primitive cells build up your supercell.
 

 Routine SETGRP: Setting up the symmetry group for a 
 simple cubic supercell.


 Subroutine GETGRP returns: Found 48 space group operations
 (whereof 48 operations were pure point group operations)
 out of a pool of 48 trial point group operations.


The magnetic configuration has the point symmetry O_h .


 Subroutine INISYM returns: Found 48 space group operations
 (whereof 48 operations are pure point group operations),
 and found     4 'primitive' translations

 
 
 KPOINTS: Automatic kpoint scheme                 

Automatic generation of k-mesh.
Space group operators:
 irot       det(A)        alpha          n_x          n_y          n_z        tau_x        tau_y        tau_z
    1     1.000000     0.000000     1.000000     0.000000     0.000000     0.000000     0.000000     0.000000
    2    -1.000000     0.000000     1.000000     0.000000     0.000000     0.000000     0.000000     0.000000
    3     1.000000   120.000000    -0.577350    -0.577350    -0.577350     0.000000     0.000000     0.000000
    4    -1.000000   120.000000    -0.577350    -0.577350    -0.577350     0.000000     0.000000     0.000000
    5     1.000000   120.000000     0.577350     0.577350     0.577350     0.000000     0.000000     0.000000
    6    -1.000000   120.000000     0.577350     0.577350     0.577350     0.000000     0.000000     0.000000
    7     1.000000    90.000000     0.000000     0.000000    -1.000000     0.000000     0.000000     0.000000
    8    -1.000000    90.000000     0.000000     0.000000    -1.000000     0.000000     0.000000     0.000000
    9     1.000000   180.000000     0.000000     0.707107     0.707107     0.000000     0.000000     0.000000
   10    -1.000000   180.000000     0.000000     0.707107     0.707107     0.000000     0.000000     0.000000
   11     1.000000    90.000000     0.000000     1.000000     0.000000     0.000000     0.000000     0.000000
   12    -1.000000    90.000000     0.000000     1.000000     0.000000     0.000000     0.000000     0.000000
   13     1.000000   180.000000     0.000000     0.000000     1.000000     0.000000     0.000000     0.000000
   14    -1.000000   180.000000     0.000000     0.000000     1.000000     0.000000     0.000000     0.000000
   15     1.000000   120.000000    -0.577350     0.577350     0.577350     0.000000     0.000000     0.000000
   16    -1.000000   120.000000    -0.577350     0.577350     0.577350     0.000000     0.000000     0.000000
   17     1.000000   120.000000    -0.577350     0.577350    -0.577350     0.000000     0.000000     0.000000
   18    -1.000000   120.000000    -0.577350     0.577350    -0.577350     0.000000     0.000000     0.000000
   19     1.000000    90.000000     0.000000     0.000000     1.000000     0.000000     0.000000     0.000000
   20    -1.000000    90.000000     0.000000     0.000000     1.000000     0.000000     0.000000     0.000000
   21     1.000000    90.000000    -1.000000     0.000000     0.000000     0.000000     0.000000     0.000000
   22    -1.000000    90.000000    -1.000000     0.000000     0.000000     0.000000     0.000000     0.000000
   23     1.000000   180.000000     0.707107     0.000000     0.707107     0.000000     0.000000     0.000000
   24    -1.000000   180.000000     0.707107     0.000000     0.707107     0.000000     0.000000     0.000000
   25     1.000000   120.000000     0.577350    -0.577350     0.577350     0.000000     0.000000     0.000000
   26    -1.000000   120.000000     0.577350    -0.577350     0.577350     0.000000     0.000000     0.000000
   27     1.000000   120.000000    -0.577350    -0.577350     0.577350     0.000000     0.000000     0.000000
   28    -1.000000   120.000000    -0.577350    -0.577350     0.577350     0.000000     0.000000     0.000000
   29     1.000000   180.000000     1.000000     0.000000     0.000000     0.000000     0.000000     0.000000
   30    -1.000000   180.000000     1.000000     0.000000     0.000000     0.000000     0.000000     0.000000
   31     1.000000    90.000000     0.000000    -1.000000     0.000000     0.000000     0.000000     0.000000
   32    -1.000000    90.000000     0.000000    -1.000000     0.000000     0.000000     0.000000     0.000000
   33     1.000000   180.000000     0.707107     0.707107     0.000000     0.000000     0.000000     0.000000
   34    -1.000000   180.000000     0.707107     0.707107     0.000000     0.000000     0.000000     0.000000
   35     1.000000    90.000000     1.000000     0.000000     0.000000     0.000000     0.000000     0.000000
   36    -1.000000    90.000000     1.000000     0.000000     0.000000     0.000000     0.000000     0.000000
   37     1.000000   120.000000     0.577350    -0.577350    -0.577350     0.000000     0.000000     0.000000
   38    -1.000000   120.000000     0.577350    -0.577350    -0.577350     0.000000     0.000000     0.000000
   39     1.000000   180.000000     0.000000     1.000000     0.000000     0.000000     0.000000     0.000000
   40    -1.000000   180.000000     0.000000     1.000000     0.000000     0.000000     0.000000     0.000000
   41     1.000000   120.000000     0.577350     0.577350    -0.577350     0.000000     0.000000     0.000000
   42    -1.000000   120.000000     0.577350     0.577350    -0.577350     0.000000     0.000000     0.000000
   43     1.000000   180.000000     0.000000    -0.707107     0.707107     0.000000     0.000000     0.000000
   44    -1.000000   180.000000     0.000000    -0.707107     0.707107     0.000000     0.000000     0.000000
   45     1.000000   180.000000     0.707107    -0.707107     0.000000     0.000000     0.000000     0.000000
   46    -1.000000   180.000000     0.707107    -0.707107     0.000000     0.000000     0.000000     0.000000
   47     1.000000   180.000000     0.707107     0.000000    -0.707107     0.000000     0.000000     0.000000
   48    -1.000000   180.000000     0.707107     0.000000    -0.707107     0.000000     0.000000     0.000000
 
 Subroutine IBZKPT returns following result:
 ===========================================
 
 Found    560 irreducible k-points:
 
 Following reciprocal coordinates:
            Coordinates               Weight
  0.000000  0.000000  0.000000      1.000000
  0.038462  0.000000  0.000000      6.000000
  0.076923  0.000000  0.000000      6.000000
  0.115385  0.000000  0.000000      6.000000
  0.153846  0.000000  0.000000      6.000000
  0.192308  0.000000  0.000000      6.000000
  0.230769  0.000000  0.000000      6.000000
  0.269231  0.000000  0.000000      6.000000
  0.307692  0.000000  0.000000      6.000000
  0.346154  0.000000  0.000000      6.000000
  0.384615  0.000000  0.000000      6.000000
  0.423077  0.000000  0.000000      6.000000
  0.461538  0.000000  0.000000      6.000000
  0.500000  0.000000  0.000000      3.000000
  0.038462  0.038462  0.000000     12.000000
  0.076923  0.038462  0.000000     24.000000
  0.115385  0.038462  0.000000     24.000000
  0.153846  0.038462  0.000000     24.000000
  0.192308  0.038462  0.000000     24.000000
  0.230769  0.038462  0.000000     24.000000
  0.269231  0.038462  0.000000     24.000000
  0.307692  0.038462  0.000000     24.000000
  0.346154  0.038462  0.000000     24.000000
  0.384615  0.038462  0.000000     24.000000
  0.423077  0.038462  0.000000     24.000000
  0.461538  0.038462  0.000000     24.000000
  0.500000  0.038462  0.000000     12.000000
  0.076923  0.076923  0.000000     12.000000
  0.115385  0.076923  0.000000     24.000000
  0.153846  0.076923  0.000000     24.000000
  0.192308  0.076923  0.000000     24.000000
  0.230769  0.076923  0.000000     24.000000
  0.269231  0.076923  0.000000     24.000000
  0.307692  0.076923  0.000000     24.000000
  0.346154  0.076923  0.000000     24.000000
  0.384615  0.076923  0.000000     24.000000
  0.423077  0.076923  0.000000     24.000000
  0.461538  0.076923  0.000000     24.000000
  0.500000  0.076923  0.000000     12.000000
  0.115385  0.115385  0.000000     12.000000
  0.153846  0.115385  0.000000     24.000000
  0.192308  0.115385  0.000000     24.000000
  0.230769  0.115385  0.000000     24.000000
  0.269231  0.115385  0.000000     24.000000
  0.307692  0.115385  0.000000     24.000000
  0.346154  0.115385  0.000000     24.000000
  0.384615  0.115385  0.000000     24.000000
  0.423077  0.115385  0.000000     24.000000
  0.461538  0.115385  0.000000     24.000000
  0.500000  0.115385  0.000000     12.000000
  0.153846  0.153846  0.000000     12.000000
  0.192308  0.153846  0.000000     24.000000
  0.230769  0.153846  0.000000     24.000000
  0.269231  0.153846  0.000000     24.000000
  0.307692  0.153846  0.000000     24.000000
  0.346154  0.153846  0.000000     24.000000
  0.384615  0.153846  0.000000     24.000000
  0.423077  0.153846  0.000000     24.000000
  0.461538  0.153846  0.000000     24.000000
  0.500000  0.153846  0.000000     12.000000
  0.192308  0.192308  0.000000     12.000000
  0.230769  0.192308  0.000000     24.000000
  0.269231  0.192308  0.000000     24.000000
  0.307692  0.192308  0.000000     24.000000
  0.346154  0.192308  0.000000     24.000000
  0.384615  0.192308  0.000000     24.000000
  0.423077  0.192308  0.000000     24.000000
  0.461538  0.192308  0.000000     24.000000
  0.500000  0.192308  0.000000     12.000000
  0.230769  0.230769  0.000000     12.000000
  0.269231  0.230769  0.000000     24.000000
  0.307692  0.230769  0.000000     24.000000
  0.346154  0.230769  0.000000     24.000000
  0.384615  0.230769  0.000000     24.000000
  0.423077  0.230769  0.000000     24.000000
  0.461538  0.230769  0.000000     24.000000
  0.500000  0.230769  0.000000     12.000000
  0.269231  0.269231  0.000000     12.000000
  0.307692  0.269231  0.000000     24.000000
  0.346154  0.269231  0.000000     24.000000
  0.384615  0.269231  0.000000     24.000000
  0.423077  0.269231  0.000000     24.000000
  0.461538  0.269231  0.000000     24.000000
  0.500000  0.269231  0.000000     12.000000
  0.307692  0.307692  0.000000     12.000000
  0.346154  0.307692  0.000000     24.000000
  0.384615  0.307692  0.000000     24.000000
  0.423077  0.307692  0.000000     24.000000
  0.461538  0.307692  0.000000     24.000000
  0.500000  0.307692  0.000000     12.000000
  0.346154  0.346154  0.000000     12.000000
  0.384615  0.346154  0.000000     24.000000
  0.423077  0.346154  0.000000     24.000000
  0.461538  0.346154  0.000000     24.000000
  0.500000  0.346154  0.000000     12.000000
  0.384615  0.384615  0.000000     12.000000
  0.423077  0.384615  0.000000     24.000000
  0.461538  0.384615  0.000000     24.000000
  0.500000  0.384615  0.000000     12.000000
  0.423077  0.423077  0.000000     12.000000
  0.461538  0.423077  0.000000     24.000000
  0.500000  0.423077  0.000000     12.000000
  0.461538  0.461538  0.000000     12.000000
  0.500000  0.461538  0.000000     12.000000
  0.500000  0.500000  0.000000      3.000000
  0.038462  0.038462  0.038462      8.000000
  0.076923  0.038462  0.038462     24.000000
  0.115385  0.038462  0.038462     24.000000
  0.153846  0.038462  0.038462     24.000000
  0.192308  0.038462  0.038462     24.000000
  0.230769  0.038462  0.038462     24.000000
  0.269231  0.038462  0.038462     24.000000
  0.307692  0.038462  0.038462     24.000000
  0.346154  0.038462  0.038462     24.000000
  0.384615  0.038462  0.038462     24.000000
  0.423077  0.038462  0.038462     24.000000
  0.461538  0.038462  0.038462     24.000000
  0.500000  0.038462  0.038462     12.000000
  0.076923  0.076923  0.038462     24.000000
  0.115385  0.076923  0.038462     48.000000
  0.153846  0.076923  0.038462     48.000000
  0.192308  0.076923  0.038462     48.000000
  0.230769  0.076923  0.038462     48.000000
  0.269231  0.076923  0.038462     48.000000
  0.307692  0.076923  0.038462     48.000000
  0.346154  0.076923  0.038462     48.000000
  0.384615  0.076923  0.038462     48.000000
  0.423077  0.076923  0.038462     48.000000
  0.461538  0.076923  0.038462     48.000000
  0.500000  0.076923  0.038462     24.000000
  0.115385  0.115385  0.038462     24.000000
  0.153846  0.115385  0.038462     48.000000
  0.192308  0.115385  0.038462     48.000000
  0.230769  0.115385  0.038462     48.000000
  0.269231  0.115385  0.038462     48.000000
  0.307692  0.115385  0.038462     48.000000
  0.346154  0.115385  0.038462     48.000000
  0.384615  0.115385  0.038462     48.000000
  0.423077  0.115385  0.038462     48.000000
  0.461538  0.115385  0.038462     48.000000
  0.500000  0.115385  0.038462     24.000000
  0.153846  0.153846  0.038462     24.000000
  0.192308  0.153846  0.038462     48.000000
  0.230769  0.153846  0.038462     48.000000
  0.269231  0.153846  0.038462     48.000000
  0.307692  0.153846  0.038462     48.000000
  0.346154  0.153846  0.038462     48.000000
  0.384615  0.153846  0.038462     48.000000
  0.423077  0.153846  0.038462     48.000000
  0.461538  0.153846  0.038462     48.000000
  0.500000  0.153846  0.038462     24.000000
  0.192308  0.192308  0.038462     24.000000
  0.230769  0.192308  0.038462     48.000000
  0.269231  0.192308  0.038462     48.000000
  0.307692  0.192308  0.038462     48.000000
  0.346154  0.192308  0.038462     48.000000
  0.384615  0.192308  0.038462     48.000000
  0.423077  0.192308  0.038462     48.000000
  0.461538  0.192308  0.038462     48.000000
  0.500000  0.192308  0.038462     24.000000
  0.230769  0.230769  0.038462     24.000000
  0.269231  0.230769  0.038462     48.000000
  0.307692  0.230769  0.038462     48.000000
  0.346154  0.230769  0.038462     48.000000
  0.384615  0.230769  0.038462     48.000000
  0.423077  0.230769  0.038462     48.000000
  0.461538  0.230769  0.038462     48.000000
  0.500000  0.230769  0.038462     24.000000
  0.269231  0.269231  0.038462     24.000000
  0.307692  0.269231  0.038462     48.000000
  0.346154  0.269231  0.038462     48.000000
  0.384615  0.269231  0.038462     48.000000
  0.423077  0.269231  0.038462     48.000000
  0.461538  0.269231  0.038462     48.000000
  0.500000  0.269231  0.038462     24.000000
  0.307692  0.307692  0.038462     24.000000
  0.346154  0.307692  0.038462     48.000000
  0.384615  0.307692  0.038462     48.000000
  0.423077  0.307692  0.038462     48.000000
  0.461538  0.307692  0.038462     48.000000
  0.500000  0.307692  0.038462     24.000000
  0.346154  0.346154  0.038462     24.000000
  0.384615  0.346154  0.038462     48.000000
  0.423077  0.346154  0.038462     48.000000
  0.461538  0.346154  0.038462     48.000000
  0.500000  0.346154  0.038462     24.000000
  0.384615  0.384615  0.038462     24.000000
  0.423077  0.384615  0.038462     48.000000
  0.461538  0.384615  0.038462     48.000000
  0.500000  0.384615  0.038462     24.000000
  0.423077  0.423077  0.038462     24.000000
  0.461538  0.423077  0.038462     48.000000
  0.500000  0.423077  0.038462     24.000000
  0.461538  0.461538  0.038462     24.000000
  0.500000  0.461538  0.038462     24.000000
  0.500000  0.500000  0.038462      6.000000
  0.076923  0.076923  0.076923      8.000000
  0.115385  0.076923  0.076923     24.000000
  0.153846  0.076923  0.076923     24.000000
  0.192308  0.076923  0.076923     24.000000
  0.230769  0.076923  0.076923     24.000000
  0.269231  0.076923  0.076923     24.000000
  0.307692  0.076923  0.076923     24.000000
  0.346154  0.076923  0.076923     24.000000
  0.384615  0.076923  0.076923     24.000000
  0.423077  0.076923  0.076923     24.000000
  0.461538  0.076923  0.076923     24.000000
  0.500000  0.076923  0.076923     12.000000
  0.115385  0.115385  0.076923     24.000000
  0.153846  0.115385  0.076923     48.000000
  0.192308  0.115385  0.076923     48.000000
  0.230769  0.115385  0.076923     48.000000
  0.269231  0.115385  0.076923     48.000000
  0.307692  0.115385  0.076923     48.000000
  0.346154  0.115385  0.076923     48.000000
  0.384615  0.115385  0.076923     48.000000
  0.423077  0.115385  0.076923     48.000000
  0.461538  0.115385  0.076923     48.000000
  0.500000  0.115385  0.076923     24.000000
  0.153846  0.153846  0.076923     24.000000
  0.192308  0.153846  0.076923     48.000000
  0.230769  0.153846  0.076923     48.000000
  0.269231  0.153846  0.076923     48.000000
  0.307692  0.153846  0.076923     48.000000
  0.346154  0.153846  0.076923     48.000000
  0.384615  0.153846  0.076923     48.000000
  0.423077  0.153846  0.076923     48.000000
  0.461538  0.153846  0.076923     48.000000
  0.500000  0.153846  0.076923     24.000000
  0.192308  0.192308  0.076923     24.000000
  0.230769  0.192308  0.076923     48.000000
  0.269231  0.192308  0.076923     48.000000
  0.307692  0.192308  0.076923     48.000000
  0.346154  0.192308  0.076923     48.000000
  0.384615  0.192308  0.076923     48.000000
  0.423077  0.192308  0.076923     48.000000
  0.461538  0.192308  0.076923     48.000000
  0.500000  0.192308  0.076923     24.000000
  0.230769  0.230769  0.076923     24.000000
  0.269231  0.230769  0.076923     48.000000
  0.307692  0.230769  0.076923     48.000000
  0.346154  0.230769  0.076923     48.000000
  0.384615  0.230769  0.076923     48.000000
  0.423077  0.230769  0.076923     48.000000
  0.461538  0.230769  0.076923     48.000000
  0.500000  0.230769  0.076923     24.000000
  0.269231  0.269231  0.076923     24.000000
  0.307692  0.269231  0.076923     48.000000
  0.346154  0.269231  0.076923     48.000000
  0.384615  0.269231  0.076923     48.000000
  0.423077  0.269231  0.076923     48.000000
  0.461538  0.269231  0.076923     48.000000
  0.500000  0.269231  0.076923     24.000000
  0.307692  0.307692  0.076923     24.000000
  0.346154  0.307692  0.076923     48.000000
  0.384615  0.307692  0.076923     48.000000
  0.423077  0.307692  0.076923     48.000000
  0.461538  0.307692  0.076923     48.000000
  0.500000  0.307692  0.076923     24.000000
  0.346154  0.346154  0.076923     24.000000
  0.384615  0.346154  0.076923     48.000000
  0.423077  0.346154  0.076923     48.000000
  0.461538  0.346154  0.076923     48.000000
  0.500000  0.346154  0.076923     24.000000
  0.384615  0.384615  0.076923     24.000000
  0.423077  0.384615  0.076923     48.000000
  0.461538  0.384615  0.076923     48.000000
  0.500000  0.384615  0.076923     24.000000
  0.423077  0.423077  0.076923     24.000000
  0.461538  0.423077  0.076923     48.000000
  0.500000  0.423077  0.076923     24.000000
  0.461538  0.461538  0.076923     24.000000
  0.500000  0.461538  0.076923     24.000000
  0.500000  0.500000  0.076923      6.000000
  0.115385  0.115385  0.115385      8.000000
  0.153846  0.115385  0.115385     24.000000
  0.192308  0.115385  0.115385     24.000000
  0.230769  0.115385  0.115385     24.000000
  0.269231  0.115385  0.115385     24.000000
  0.307692  0.115385  0.115385     24.000000
  0.346154  0.115385  0.115385     24.000000
  0.384615  0.115385  0.115385     24.000000
  0.423077  0.115385  0.115385     24.000000
  0.461538  0.115385  0.115385     24.000000
  0.500000  0.115385  0.115385     12.000000
  0.153846  0.153846  0.115385     24.000000
  0.192308  0.153846  0.115385     48.000000
  0.230769  0.153846  0.115385     48.000000
  0.269231  0.153846  0.115385     48.000000
  0.307692  0.153846  0.115385     48.000000
  0.346154  0.153846  0.115385     48.000000
  0.384615  0.153846  0.115385     48.000000
  0.423077  0.153846  0.115385     48.000000
  0.461538  0.153846  0.115385     48.000000
  0.500000  0.153846  0.115385     24.000000
  0.192308  0.192308  0.115385     24.000000
  0.230769  0.192308  0.115385     48.000000
  0.269231  0.192308  0.115385     48.000000
  0.307692  0.192308  0.115385     48.000000
  0.346154  0.192308  0.115385     48.000000
  0.384615  0.192308  0.115385     48.000000
  0.423077  0.192308  0.115385     48.000000
  0.461538  0.192308  0.115385     48.000000
  0.500000  0.192308  0.115385     24.000000
  0.230769  0.230769  0.115385     24.000000
  0.269231  0.230769  0.115385     48.000000
  0.307692  0.230769  0.115385     48.000000
  0.346154  0.230769  0.115385     48.000000
  0.384615  0.230769  0.115385     48.000000
  0.423077  0.230769  0.115385     48.000000
  0.461538  0.230769  0.115385     48.000000
  0.500000  0.230769  0.115385     24.000000
  0.269231  0.269231  0.115385     24.000000
  0.307692  0.269231  0.115385     48.000000
  0.346154  0.269231  0.115385     48.000000
  0.384615  0.269231  0.115385     48.000000
  0.423077  0.269231  0.115385     48.000000
  0.461538  0.269231  0.115385     48.000000
  0.500000  0.269231  0.115385     24.000000
  0.307692  0.307692  0.115385     24.000000
  0.346154  0.307692  0.115385     48.000000
  0.384615  0.307692  0.115385     48.000000
  0.423077  0.307692  0.115385     48.000000
  0.461538  0.307692  0.115385     48.000000
  0.500000  0.307692  0.115385     24.000000
  0.346154  0.346154  0.115385     24.000000
  0.384615  0.346154  0.115385     48.000000
  0.423077  0.346154  0.115385     48.000000
  0.461538  0.346154  0.115385     48.000000
  0.500000  0.346154  0.115385     24.000000
  0.384615  0.384615  0.115385     24.000000
  0.423077  0.384615  0.115385     48.000000
  0.461538  0.384615  0.115385     48.000000
  0.500000  0.384615  0.115385     24.000000
  0.423077  0.423077  0.115385     24.000000
  0.461538  0.423077  0.115385     48.000000
  0.500000  0.423077  0.115385     24.000000
  0.461538  0.461538  0.115385     24.000000
  0.500000  0.461538  0.115385     24.000000
  0.500000  0.500000  0.115385      6.000000
  0.153846  0.153846  0.153846      8.000000
  0.192308  0.153846  0.153846     24.000000
  0.230769  0.153846  0.153846     24.000000
  0.269231  0.153846  0.153846     24.000000
  0.307692  0.153846  0.153846     24.000000
  0.346154  0.153846  0.153846     24.000000
  0.384615  0.153846  0.153846     24.000000
  0.423077  0.153846  0.153846     24.000000
  0.461538  0.153846  0.153846     24.000000
  0.500000  0.153846  0.153846     12.000000
  0.192308  0.192308  0.153846     24.000000
  0.230769  0.192308  0.153846     48.000000
  0.269231  0.192308  0.153846     48.000000
  0.307692  0.192308  0.153846     48.000000
  0.346154  0.192308  0.153846     48.000000
  0.384615  0.192308  0.153846     48.000000
  0.423077  0.192308  0.153846     48.000000
  0.461538  0.192308  0.153846     48.000000
  0.500000  0.192308  0.153846     24.000000
  0.230769  0.230769  0.153846     24.000000
  0.269231  0.230769  0.153846     48.000000
  0.307692  0.230769  0.153846     48.000000
  0.346154  0.230769  0.153846     48.000000
  0.384615  0.230769  0.153846     48.000000
  0.423077  0.230769  0.153846     48.000000
  0.461538  0.230769  0.153846     48.000000
  0.500000  0.230769  0.153846     24.000000
  0.269231  0.269231  0.153846     24.000000
  0.307692  0.269231  0.153846     48.000000
  0.346154  0.269231  0.153846     48.000000
  0.384615  0.269231  0.153846     48.000000
  0.423077  0.269231  0.153846     48.000000
  0.461538  0.269231  0.153846     48.000000
  0.500000  0.269231  0.153846     24.000000
  0.307692  0.307692  0.153846     24.000000
  0.346154  0.307692  0.153846     48.000000
  0.384615  0.307692  0.153846     48.000000
  0.423077  0.307692  0.153846     48.000000
  0.461538  0.307692  0.153846     48.000000
  0.500000  0.307692  0.153846     24.000000
  0.346154  0.346154  0.153846     24.000000
  0.384615  0.346154  0.153846     48.000000
  0.423077  0.346154  0.153846     48.000000
  0.461538  0.346154  0.153846     48.000000
  0.500000  0.346154  0.153846     24.000000
  0.384615  0.384615  0.153846     24.000000
  0.423077  0.384615  0.153846     48.000000
  0.461538  0.384615  0.153846     48.000000
  0.500000  0.384615  0.153846     24.000000
  0.423077  0.423077  0.153846     24.000000
  0.461538  0.423077  0.153846     48.000000
  0.500000  0.423077  0.153846     24.000000
  0.461538  0.461538  0.153846     24.000000
  0.500000  0.461538  0.153846     24.000000
  0.500000  0.500000  0.153846      6.000000
  0.192308  0.192308  0.192308      8.000000
  0.230769  0.192308  0.192308     24.000000
  0.269231  0.192308  0.192308     24.000000
  0.307692  0.192308  0.192308     24.000000
  0.346154  0.192308  0.192308     24.000000
  0.384615  0.192308  0.192308     24.000000
  0.423077  0.192308  0.192308     24.000000
  0.461538  0.192308  0.192308     24.000000
  0.500000  0.192308  0.192308     12.000000
  0.230769  0.230769  0.192308     24.000000
  0.269231  0.230769  0.192308     48.000000
  0.307692  0.230769  0.192308     48.000000
  0.346154  0.230769  0.192308     48.000000
  0.384615  0.230769  0.192308     48.000000
  0.423077  0.230769  0.192308     48.000000
  0.461538  0.230769  0.192308     48.000000
  0.500000  0.230769  0.192308     24.000000
  0.269231  0.269231  0.192308     24.000000
  0.307692  0.269231  0.192308     48.000000
  0.346154  0.269231  0.192308     48.000000
  0.384615  0.269231  0.192308     48.000000
  0.423077  0.269231  0.192308     48.000000
  0.461538  0.269231  0.192308     48.000000
  0.500000  0.269231  0.192308     24.000000
  0.307692  0.307692  0.192308     24.000000
  0.346154  0.307692  0.192308     48.000000
  0.384615  0.307692  0.192308     48.000000
  0.423077  0.307692  0.192308     48.000000
  0.461538  0.307692  0.192308     48.000000
  0.500000  0.307692  0.192308     24.000000
  0.346154  0.346154  0.192308     24.000000
  0.384615  0.346154  0.192308     48.000000
  0.423077  0.346154  0.192308     48.000000
  0.461538  0.346154  0.192308     48.000000
  0.500000  0.346154  0.192308     24.000000
  0.384615  0.384615  0.192308     24.000000
  0.423077  0.384615  0.192308     48.000000
  0.461538  0.384615  0.192308     48.000000
  0.500000  0.384615  0.192308     24.000000
  0.423077  0.423077  0.192308     24.000000
  0.461538  0.423077  0.192308     48.000000
  0.500000  0.423077  0.192308     24.000000
  0.461538  0.461538  0.192308     24.000000
  0.500000  0.461538  0.192308     24.000000
  0.500000  0.500000  0.192308      6.000000
  0.230769  0.230769  0.230769      8.000000
  0.269231  0.230769  0.230769     24.000000
  0.307692  0.230769  0.230769     24.000000
  0.346154  0.230769  0.230769     24.000000
  0.384615  0.230769  0.230769     24.000000
  0.423077  0.230769  0.230769     24.000000
  0.461538  0.230769  0.230769     24.000000
  0.500000  0.230769  0.230769     12.000000
  0.269231  0.269231  0.230769     24.000000
  0.307692  0.269231  0.230769     48.000000
  0.346154  0.269231  0.230769     48.000000
  0.384615  0.269231  0.230769     48.000000
  0.423077  0.269231  0.230769     48.000000
  0.461538  0.269231  0.230769     48.000000
  0.500000  0.269231  0.230769     24.000000
  0.307692  0.307692  0.230769     24.000000
  0.346154  0.307692  0.230769     48.000000
  0.384615  0.307692  0.230769     48.000000
  0.423077  0.307692  0.230769     48.000000
  0.461538  0.307692  0.230769     48.000000
  0.500000  0.307692  0.230769     24.000000
  0.346154  0.346154  0.230769     24.000000
  0.384615  0.346154  0.230769     48.000000
  0.423077  0.346154  0.230769     48.000000
  0.461538  0.346154  0.230769     48.000000
  0.500000  0.346154  0.230769     24.000000
  0.384615  0.384615  0.230769     24.000000
  0.423077  0.384615  0.230769     48.000000
  0.461538  0.384615  0.230769     48.000000
  0.500000  0.384615  0.230769     24.000000
  0.423077  0.423077  0.230769     24.000000
  0.461538  0.423077  0.230769     48.000000
  0.500000  0.423077  0.230769     24.000000
  0.461538  0.461538  0.230769     24.000000
  0.500000  0.461538  0.230769     24.000000
  0.500000  0.500000  0.230769      6.000000
  0.269231  0.269231  0.269231      8.000000
  0.307692  0.269231  0.269231     24.000000
  0.346154  0.269231  0.269231     24.000000
  0.384615  0.269231  0.269231     24.000000
  0.423077  0.269231  0.269231     24.000000
  0.461538  0.269231  0.269231     24.000000
  0.500000  0.269231  0.269231     12.000000
  0.307692  0.307692  0.269231     24.000000
  0.346154  0.307692  0.269231     48.000000
  0.384615  0.307692  0.269231     48.000000
  0.423077  0.307692  0.269231     48.000000
  0.461538  0.307692  0.269231     48.000000
  0.500000  0.307692  0.269231     24.000000
  0.346154  0.346154  0.269231     24.000000
  0.384615  0.346154  0.269231     48.000000
  0.423077  0.346154  0.269231     48.000000
  0.461538  0.346154  0.269231     48.000000
  0.500000  0.346154  0.269231     24.000000
  0.384615  0.384615  0.269231     24.000000
  0.423077  0.384615  0.269231     48.000000
  0.461538  0.384615  0.269231     48.000000
  0.500000  0.384615  0.269231     24.000000
  0.423077  0.423077  0.269231     24.000000
  0.461538  0.423077  0.269231     48.000000
  0.500000  0.423077  0.269231     24.000000
  0.461538  0.461538  0.269231     24.000000
  0.500000  0.461538  0.269231     24.000000
  0.500000  0.500000  0.269231      6.000000
  0.307692  0.307692  0.307692      8.000000
  0.346154  0.307692  0.307692     24.000000
  0.384615  0.307692  0.307692     24.000000
  0.423077  0.307692  0.307692     24.000000
  0.461538  0.307692  0.307692     24.000000
  0.500000  0.307692  0.307692     12.000000
  0.346154  0.346154  0.307692     24.000000
  0.384615  0.346154  0.307692     48.000000
  0.423077  0.346154  0.307692     48.000000
  0.461538  0.346154  0.307692     48.000000
  0.500000  0.346154  0.307692     24.000000
  0.384615  0.384615  0.307692     24.000000
  0.423077  0.384615  0.307692     48.000000
  0.461538  0.384615  0.307692     48.000000
  0.500000  0.384615  0.307692     24.000000
  0.423077  0.423077  0.307692     24.000000
  0.461538  0.423077  0.307692     48.000000
  0.500000  0.423077  0.307692     24.000000
  0.461538  0.461538  0.307692     24.000000
  0.500000  0.461538  0.307692     24.000000
  0.500000  0.500000  0.307692      6.000000
  0.346154  0.346154  0.346154      8.000000
  0.384615  0.346154  0.346154     24.000000
  0.423077  0.346154  0.346154     24.000000
  0.461538  0.346154  0.346154     24.000000
  0.500000  0.346154  0.346154     12.000000
  0.384615  0.384615  0.346154     24.000000
  0.423077  0.384615  0.346154     48.000000
  0.461538  0.384615  0.346154     48.000000
  0.500000  0.384615  0.346154     24.000000
  0.423077  0.423077  0.346154     24.000000
  0.461538  0.423077  0.346154     48.000000
  0.500000  0.423077  0.346154     24.000000
  0.461538  0.461538  0.346154     24.000000
  0.500000  0.461538  0.346154     24.000000
  0.500000  0.500000  0.346154      6.000000
  0.384615  0.384615  0.384615      8.000000
  0.423077  0.384615  0.384615     24.000000
  0.461538  0.384615  0.384615     24.000000
  0.500000  0.384615  0.384615     12.000000
  0.423077  0.423077  0.384615     24.000000
  0.461538  0.423077  0.384615     48.000000
  0.500000  0.423077  0.384615     24.000000
  0.461538  0.461538  0.384615     24.000000
  0.500000  0.461538  0.384615     24.000000
  0.500000  0.500000  0.384615      6.000000
  0.423077  0.423077  0.423077      8.000000
  0.461538  0.423077  0.423077     24.000000
  0.500000  0.423077  0.423077     12.000000
  0.461538  0.461538  0.423077     24.000000
  0.500000  0.461538  0.423077     24.000000
  0.500000  0.500000  0.423077      6.000000
  0.461538  0.461538  0.461538      8.000000
  0.500000  0.461538  0.461538     12.000000
  0.500000  0.500000  0.461538      6.000000
  0.500000  0.500000  0.500000      1.000000
 
 Following cartesian coordinates:
            Coordinates               Weight
  0.000000  0.000000  0.000000      1.000000
  0.009262  0.000000  0.000000      6.000000
  0.018524  0.000000  0.000000      6.000000
  0.027786  0.000000  0.000000      6.000000
  0.037048  0.000000  0.000000      6.000000
  0.046310  0.000000  0.000000      6.000000
  0.055572  0.000000  0.000000      6.000000
  0.064834  0.000000  0.000000      6.000000
  0.074096  0.000000  0.000000      6.000000
  0.083358  0.000000  0.000000      6.000000
  0.092620  0.000000  0.000000      6.000000
  0.101882  0.000000  0.000000      6.000000
  0.111145  0.000000  0.000000      6.000000
  0.120407  0.000000  0.000000      3.000000
  0.009262  0.009262  0.000000     12.000000
  0.018524  0.009262  0.000000     24.000000
  0.027786  0.009262  0.000000     24.000000
  0.037048  0.009262  0.000000     24.000000
  0.046310  0.009262  0.000000     24.000000
  0.055572  0.009262  0.000000     24.000000
  0.064834  0.009262  0.000000     24.000000
  0.074096  0.009262  0.000000     24.000000
  0.083358  0.009262  0.000000     24.000000
  0.092620  0.009262  0.000000     24.000000
  0.101882  0.009262  0.000000     24.000000
  0.111145  0.009262  0.000000     24.000000
  0.120407  0.009262  0.000000     12.000000
  0.018524  0.018524  0.000000     12.000000
  0.027786  0.018524  0.000000     24.000000
  0.037048  0.018524  0.000000     24.000000
  0.046310  0.018524  0.000000     24.000000
  0.055572  0.018524  0.000000     24.000000
  0.064834  0.018524  0.000000     24.000000
  0.074096  0.018524  0.000000     24.000000
  0.083358  0.018524  0.000000     24.000000
  0.092620  0.018524  0.000000     24.000000
  0.101882  0.018524  0.000000     24.000000
  0.111145  0.018524  0.000000     24.000000
  0.120407  0.018524  0.000000     12.000000
  0.027786  0.027786  0.000000     12.000000
  0.037048  0.027786  0.000000     24.000000
  0.046310  0.027786  0.000000     24.000000
  0.055572  0.027786  0.000000     24.000000
  0.064834  0.027786  0.000000     24.000000
  0.074096  0.027786  0.000000     24.000000
  0.083358  0.027786  0.000000     24.000000
  0.092620  0.027786  0.000000     24.000000
  0.101882  0.027786  0.000000     24.000000
  0.111145  0.027786  0.000000     24.000000
  0.120407  0.027786  0.000000     12.000000
  0.037048  0.037048  0.000000     12.000000
  0.046310  0.037048  0.000000     24.000000
  0.055572  0.037048  0.000000     24.000000
  0.064834  0.037048  0.000000     24.000000
  0.074096  0.037048  0.000000     24.000000
  0.083358  0.037048  0.000000     24.000000
  0.092620  0.037048  0.000000     24.000000
  0.101882  0.037048  0.000000     24.000000
  0.111145  0.037048  0.000000     24.000000
  0.120407  0.037048  0.000000     12.000000
  0.046310  0.046310  0.000000     12.000000
  0.055572  0.046310  0.000000     24.000000
  0.064834  0.046310  0.000000     24.000000
  0.074096  0.046310  0.000000     24.000000
  0.083358  0.046310  0.000000     24.000000
  0.092620  0.046310  0.000000     24.000000
  0.101882  0.046310  0.000000     24.000000
  0.111145  0.046310  0.000000     24.000000
  0.120407  0.046310  0.000000     12.000000
  0.055572  0.055572  0.000000     12.000000
  0.064834  0.055572  0.000000     24.000000
  0.074096  0.055572  0.000000     24.000000
  0.083358  0.055572  0.000000     24.000000
  0.092620  0.055572  0.000000     24.000000
  0.101882  0.055572  0.000000     24.000000
  0.111145  0.055572  0.000000     24.000000
  0.120407  0.055572  0.000000     12.000000
  0.064834  0.064834  0.000000     12.000000
  0.074096  0.064834  0.000000     24.000000
  0.083358  0.064834  0.000000     24.000000
  0.092620  0.064834  0.000000     24.000000
  0.101882  0.064834  0.000000     24.000000
  0.111145  0.064834  0.000000     24.000000
  0.120407  0.064834  0.000000     12.000000
  0.074096  0.074096  0.000000     12.000000
  0.083358  0.074096  0.000000     24.000000
  0.092620  0.074096  0.000000     24.000000
  0.101882  0.074096  0.000000     24.000000
  0.111145  0.074096  0.000000     24.000000
  0.120407  0.074096  0.000000     12.000000
  0.083358  0.083358  0.000000     12.000000
  0.092620  0.083358  0.000000     24.000000
  0.101882  0.083358  0.000000     24.000000
  0.111145  0.083358  0.000000     24.000000
  0.120407  0.083358  0.000000     12.000000
  0.092620  0.092620  0.000000     12.000000
  0.101882  0.092620  0.000000     24.000000
  0.111145  0.092620  0.000000     24.000000
  0.120407  0.092620  0.000000     12.000000
  0.101882  0.101882  0.000000     12.000000
  0.111145  0.101882  0.000000     24.000000
  0.120407  0.101882  0.000000     12.000000
  0.111145  0.111145  0.000000     12.000000
  0.120407  0.111145  0.000000     12.000000
  0.120407  0.120407  0.000000      3.000000
  0.009262  0.009262  0.009262      8.000000
  0.018524  0.009262  0.009262     24.000000
  0.027786  0.009262  0.009262     24.000000
  0.037048  0.009262  0.009262     24.000000
  0.046310  0.009262  0.009262     24.000000
  0.055572  0.009262  0.009262     24.000000
  0.064834  0.009262  0.009262     24.000000
  0.074096  0.009262  0.009262     24.000000
  0.083358  0.009262  0.009262     24.000000
  0.092620  0.009262  0.009262     24.000000
  0.101882  0.009262  0.009262     24.000000
  0.111145  0.009262  0.009262     24.000000
  0.120407  0.009262  0.009262     12.000000
  0.018524  0.018524  0.009262     24.000000
  0.027786  0.018524  0.009262     48.000000
  0.037048  0.018524  0.009262     48.000000
  0.046310  0.018524  0.009262     48.000000
  0.055572  0.018524  0.009262     48.000000
  0.064834  0.018524  0.009262     48.000000
  0.074096  0.018524  0.009262     48.000000
  0.083358  0.018524  0.009262     48.000000
  0.092620  0.018524  0.009262     48.000000
  0.101882  0.018524  0.009262     48.000000
  0.111145  0.018524  0.009262     48.000000
  0.120407  0.018524  0.009262     24.000000
  0.027786  0.027786  0.009262     24.000000
  0.037048  0.027786  0.009262     48.000000
  0.046310  0.027786  0.009262     48.000000
  0.055572  0.027786  0.009262     48.000000
  0.064834  0.027786  0.009262     48.000000
  0.074096  0.027786  0.009262     48.000000
  0.083358  0.027786  0.009262     48.000000
  0.092620  0.027786  0.009262     48.000000
  0.101882  0.027786  0.009262     48.000000
  0.111145  0.027786  0.009262     48.000000
  0.120407  0.027786  0.009262     24.000000
  0.037048  0.037048  0.009262     24.000000
  0.046310  0.037048  0.009262     48.000000
  0.055572  0.037048  0.009262     48.000000
  0.064834  0.037048  0.009262     48.000000
  0.074096  0.037048  0.009262     48.000000
  0.083358  0.037048  0.009262     48.000000
  0.092620  0.037048  0.009262     48.000000
  0.101882  0.037048  0.009262     48.000000
  0.111145  0.037048  0.009262     48.000000
  0.120407  0.037048  0.009262     24.000000
  0.046310  0.046310  0.009262     24.000000
  0.055572  0.046310  0.009262     48.000000
  0.064834  0.046310  0.009262     48.000000
  0.074096  0.046310  0.009262     48.000000
  0.083358  0.046310  0.009262     48.000000
  0.092620  0.046310  0.009262     48.000000
  0.101882  0.046310  0.009262     48.000000
  0.111145  0.046310  0.009262     48.000000
  0.120407  0.046310  0.009262     24.000000
  0.055572  0.055572  0.009262     24.000000
  0.064834  0.055572  0.009262     48.000000
  0.074096  0.055572  0.009262     48.000000
  0.083358  0.055572  0.009262     48.000000
  0.092620  0.055572  0.009262     48.000000
  0.101882  0.055572  0.009262     48.000000
  0.111145  0.055572  0.009262     48.000000
  0.120407  0.055572  0.009262     24.000000
  0.064834  0.064834  0.009262     24.000000
  0.074096  0.064834  0.009262     48.000000
  0.083358  0.064834  0.009262     48.000000
  0.092620  0.064834  0.009262     48.000000
  0.101882  0.064834  0.009262     48.000000
  0.111145  0.064834  0.009262     48.000000
  0.120407  0.064834  0.009262     24.000000
  0.074096  0.074096  0.009262     24.000000
  0.083358  0.074096  0.009262     48.000000
  0.092620  0.074096  0.009262     48.000000
  0.101882  0.074096  0.009262     48.000000
  0.111145  0.074096  0.009262     48.000000
  0.120407  0.074096  0.009262     24.000000
  0.083358  0.083358  0.009262     24.000000
  0.092620  0.083358  0.009262     48.000000
  0.101882  0.083358  0.009262     48.000000
  0.111145  0.083358  0.009262     48.000000
  0.120407  0.083358  0.009262     24.000000
  0.092620  0.092620  0.009262     24.000000
  0.101882  0.092620  0.009262     48.000000
  0.111145  0.092620  0.009262     48.000000
  0.120407  0.092620  0.009262     24.000000
  0.101882  0.101882  0.009262     24.000000
  0.111145  0.101882  0.009262     48.000000
  0.120407  0.101882  0.009262     24.000000
  0.111145  0.111145  0.009262     24.000000
  0.120407  0.111145  0.009262     24.000000
  0.120407  0.120407  0.009262      6.000000
  0.018524  0.018524  0.018524      8.000000
  0.027786  0.018524  0.018524     24.000000
  0.037048  0.018524  0.018524     24.000000
  0.046310  0.018524  0.018524     24.000000
  0.055572  0.018524  0.018524     24.000000
  0.064834  0.018524  0.018524     24.000000
  0.074096  0.018524  0.018524     24.000000
  0.083358  0.018524  0.018524     24.000000
  0.092620  0.018524  0.018524     24.000000
  0.101882  0.018524  0.018524     24.000000
  0.111145  0.018524  0.018524     24.000000
  0.120407  0.018524  0.018524     12.000000
  0.027786  0.027786  0.018524     24.000000
  0.037048  0.027786  0.018524     48.000000
  0.046310  0.027786  0.018524     48.000000
  0.055572  0.027786  0.018524     48.000000
  0.064834  0.027786  0.018524     48.000000
  0.074096  0.027786  0.018524     48.000000
  0.083358  0.027786  0.018524     48.000000
  0.092620  0.027786  0.018524     48.000000
  0.101882  0.027786  0.018524     48.000000
  0.111145  0.027786  0.018524     48.000000
  0.120407  0.027786  0.018524     24.000000
  0.037048  0.037048  0.018524     24.000000
  0.046310  0.037048  0.018524     48.000000
  0.055572  0.037048  0.018524     48.000000
  0.064834  0.037048  0.018524     48.000000
  0.074096  0.037048  0.018524     48.000000
  0.083358  0.037048  0.018524     48.000000
  0.092620  0.037048  0.018524     48.000000
  0.101882  0.037048  0.018524     48.000000
  0.111145  0.037048  0.018524     48.000000
  0.120407  0.037048  0.018524     24.000000
  0.046310  0.046310  0.018524     24.000000
  0.055572  0.046310  0.018524     48.000000
  0.064834  0.046310  0.018524     48.000000
  0.074096  0.046310  0.018524     48.000000
  0.083358  0.046310  0.018524     48.000000
  0.092620  0.046310  0.018524     48.000000
  0.101882  0.046310  0.018524     48.000000
  0.111145  0.046310  0.018524     48.000000
  0.120407  0.046310  0.018524     24.000000
  0.055572  0.055572  0.018524     24.000000
  0.064834  0.055572  0.018524     48.000000
  0.074096  0.055572  0.018524     48.000000
  0.083358  0.055572  0.018524     48.000000
  0.092620  0.055572  0.018524     48.000000
  0.101882  0.055572  0.018524     48.000000
  0.111145  0.055572  0.018524     48.000000
  0.120407  0.055572  0.018524     24.000000
  0.064834  0.064834  0.018524     24.000000
  0.074096  0.064834  0.018524     48.000000
  0.083358  0.064834  0.018524     48.000000
  0.092620  0.064834  0.018524     48.000000
  0.101882  0.064834  0.018524     48.000000
  0.111145  0.064834  0.018524     48.000000
  0.120407  0.064834  0.018524     24.000000
  0.074096  0.074096  0.018524     24.000000
  0.083358  0.074096  0.018524     48.000000
  0.092620  0.074096  0.018524     48.000000
  0.101882  0.074096  0.018524     48.000000
  0.111145  0.074096  0.018524     48.000000
  0.120407  0.074096  0.018524     24.000000
  0.083358  0.083358  0.018524     24.000000
  0.092620  0.083358  0.018524     48.000000
  0.101882  0.083358  0.018524     48.000000
  0.111145  0.083358  0.018524     48.000000
  0.120407  0.083358  0.018524     24.000000
  0.092620  0.092620  0.018524     24.000000
  0.101882  0.092620  0.018524     48.000000
  0.111145  0.092620  0.018524     48.000000
  0.120407  0.092620  0.018524     24.000000
  0.101882  0.101882  0.018524     24.000000
  0.111145  0.101882  0.018524     48.000000
  0.120407  0.101882  0.018524     24.000000
  0.111145  0.111145  0.018524     24.000000
  0.120407  0.111145  0.018524     24.000000
  0.120407  0.120407  0.018524      6.000000
  0.027786  0.027786  0.027786      8.000000
  0.037048  0.027786  0.027786     24.000000
  0.046310  0.027786  0.027786     24.000000
  0.055572  0.027786  0.027786     24.000000
  0.064834  0.027786  0.027786     24.000000
  0.074096  0.027786  0.027786     24.000000
  0.083358  0.027786  0.027786     24.000000
  0.092620  0.027786  0.027786     24.000000
  0.101882  0.027786  0.027786     24.000000
  0.111145  0.027786  0.027786     24.000000
  0.120407  0.027786  0.027786     12.000000
  0.037048  0.037048  0.027786     24.000000
  0.046310  0.037048  0.027786     48.000000
  0.055572  0.037048  0.027786     48.000000
  0.064834  0.037048  0.027786     48.000000
  0.074096  0.037048  0.027786     48.000000
  0.083358  0.037048  0.027786     48.000000
  0.092620  0.037048  0.027786     48.000000
  0.101882  0.037048  0.027786     48.000000
  0.111145  0.037048  0.027786     48.000000
  0.120407  0.037048  0.027786     24.000000
  0.046310  0.046310  0.027786     24.000000
  0.055572  0.046310  0.027786     48.000000
  0.064834  0.046310  0.027786     48.000000
  0.074096  0.046310  0.027786     48.000000
  0.083358  0.046310  0.027786     48.000000
  0.092620  0.046310  0.027786     48.000000
  0.101882  0.046310  0.027786     48.000000
  0.111145  0.046310  0.027786     48.000000
  0.120407  0.046310  0.027786     24.000000
  0.055572  0.055572  0.027786     24.000000
  0.064834  0.055572  0.027786     48.000000
  0.074096  0.055572  0.027786     48.000000
  0.083358  0.055572  0.027786     48.000000
  0.092620  0.055572  0.027786     48.000000
  0.101882  0.055572  0.027786     48.000000
  0.111145  0.055572  0.027786     48.000000
  0.120407  0.055572  0.027786     24.000000
  0.064834  0.064834  0.027786     24.000000
  0.074096  0.064834  0.027786     48.000000
  0.083358  0.064834  0.027786     48.000000
  0.092620  0.064834  0.027786     48.000000
  0.101882  0.064834  0.027786     48.000000
  0.111145  0.064834  0.027786     48.000000
  0.120407  0.064834  0.027786     24.000000
  0.074096  0.074096  0.027786     24.000000
  0.083358  0.074096  0.027786     48.000000
  0.092620  0.074096  0.027786     48.000000
  0.101882  0.074096  0.027786     48.000000
  0.111145  0.074096  0.027786     48.000000
  0.120407  0.074096  0.027786     24.000000
  0.083358  0.083358  0.027786     24.000000
  0.092620  0.083358  0.027786     48.000000
  0.101882  0.083358  0.027786     48.000000
  0.111145  0.083358  0.027786     48.000000
  0.120407  0.083358  0.027786     24.000000
  0.092620  0.092620  0.027786     24.000000
  0.101882  0.092620  0.027786     48.000000
  0.111145  0.092620  0.027786     48.000000
  0.120407  0.092620  0.027786     24.000000
  0.101882  0.101882  0.027786     24.000000
  0.111145  0.101882  0.027786     48.000000
  0.120407  0.101882  0.027786     24.000000
  0.111145  0.111145  0.027786     24.000000
  0.120407  0.111145  0.027786     24.000000
  0.120407  0.120407  0.027786      6.000000
  0.037048  0.037048  0.037048      8.000000
  0.046310  0.037048  0.037048     24.000000
  0.055572  0.037048  0.037048     24.000000
  0.064834  0.037048  0.037048     24.000000
  0.074096  0.037048  0.037048     24.000000
  0.083358  0.037048  0.037048     24.000000
  0.092620  0.037048  0.037048     24.000000
  0.101882  0.037048  0.037048     24.000000
  0.111145  0.037048  0.037048     24.000000
  0.120407  0.037048  0.037048     12.000000
  0.046310  0.046310  0.037048     24.000000
  0.055572  0.046310  0.037048     48.000000
  0.064834  0.046310  0.037048     48.000000
  0.074096  0.046310  0.037048     48.000000
  0.083358  0.046310  0.037048     48.000000
  0.092620  0.046310  0.037048     48.000000
  0.101882  0.046310  0.037048     48.000000
  0.111145  0.046310  0.037048     48.000000
  0.120407  0.046310  0.037048     24.000000
  0.055572  0.055572  0.037048     24.000000
  0.064834  0.055572  0.037048     48.000000
  0.074096  0.055572  0.037048     48.000000
  0.083358  0.055572  0.037048     48.000000
  0.092620  0.055572  0.037048     48.000000
  0.101882  0.055572  0.037048     48.000000
  0.111145  0.055572  0.037048     48.000000
  0.120407  0.055572  0.037048     24.000000
  0.064834  0.064834  0.037048     24.000000
  0.074096  0.064834  0.037048     48.000000
  0.083358  0.064834  0.037048     48.000000
  0.092620  0.064834  0.037048     48.000000
  0.101882  0.064834  0.037048     48.000000
  0.111145  0.064834  0.037048     48.000000
  0.120407  0.064834  0.037048     24.000000
  0.074096  0.074096  0.037048     24.000000
  0.083358  0.074096  0.037048     48.000000
  0.092620  0.074096  0.037048     48.000000
  0.101882  0.074096  0.037048     48.000000
  0.111145  0.074096  0.037048     48.000000
  0.120407  0.074096  0.037048     24.000000
  0.083358  0.083358  0.037048     24.000000
  0.092620  0.083358  0.037048     48.000000
  0.101882  0.083358  0.037048     48.000000
  0.111145  0.083358  0.037048     48.000000
  0.120407  0.083358  0.037048     24.000000
  0.092620  0.092620  0.037048     24.000000
  0.101882  0.092620  0.037048     48.000000
  0.111145  0.092620  0.037048     48.000000
  0.120407  0.092620  0.037048     24.000000
  0.101882  0.101882  0.037048     24.000000
  0.111145  0.101882  0.037048     48.000000
  0.120407  0.101882  0.037048     24.000000
  0.111145  0.111145  0.037048     24.000000
  0.120407  0.111145  0.037048     24.000000
  0.120407  0.120407  0.037048      6.000000
  0.046310  0.046310  0.046310      8.000000
  0.055572  0.046310  0.046310     24.000000
  0.064834  0.046310  0.046310     24.000000
  0.074096  0.046310  0.046310     24.000000
  0.083358  0.046310  0.046310     24.000000
  0.092620  0.046310  0.046310     24.000000
  0.101882  0.046310  0.046310     24.000000
  0.111145  0.046310  0.046310     24.000000
  0.120407  0.046310  0.046310     12.000000
  0.055572  0.055572  0.046310     24.000000
  0.064834  0.055572  0.046310     48.000000
  0.074096  0.055572  0.046310     48.000000
  0.083358  0.055572  0.046310     48.000000
  0.092620  0.055572  0.046310     48.000000
  0.101882  0.055572  0.046310     48.000000
  0.111145  0.055572  0.046310     48.000000
  0.120407  0.055572  0.046310     24.000000
  0.064834  0.064834  0.046310     24.000000
  0.074096  0.064834  0.046310     48.000000
  0.083358  0.064834  0.046310     48.000000
  0.092620  0.064834  0.046310     48.000000
  0.101882  0.064834  0.046310     48.000000
  0.111145  0.064834  0.046310     48.000000
  0.120407  0.064834  0.046310     24.000000
  0.074096  0.074096  0.046310     24.000000
  0.083358  0.074096  0.046310     48.000000
  0.092620  0.074096  0.046310     48.000000
  0.101882  0.074096  0.046310     48.000000
  0.111145  0.074096  0.046310     48.000000
  0.120407  0.074096  0.046310     24.000000
  0.083358  0.083358  0.046310     24.000000
  0.092620  0.083358  0.046310     48.000000
  0.101882  0.083358  0.046310     48.000000
  0.111145  0.083358  0.046310     48.000000
  0.120407  0.083358  0.046310     24.000000
  0.092620  0.092620  0.046310     24.000000
  0.101882  0.092620  0.046310     48.000000
  0.111145  0.092620  0.046310     48.000000
  0.120407  0.092620  0.046310     24.000000
  0.101882  0.101882  0.046310     24.000000
  0.111145  0.101882  0.046310     48.000000
  0.120407  0.101882  0.046310     24.000000
  0.111145  0.111145  0.046310     24.000000
  0.120407  0.111145  0.046310     24.000000
  0.120407  0.120407  0.046310      6.000000
  0.055572  0.055572  0.055572      8.000000
  0.064834  0.055572  0.055572     24.000000
  0.074096  0.055572  0.055572     24.000000
  0.083358  0.055572  0.055572     24.000000
  0.092620  0.055572  0.055572     24.000000
  0.101882  0.055572  0.055572     24.000000
  0.111145  0.055572  0.055572     24.000000
  0.120407  0.055572  0.055572     12.000000
  0.064834  0.064834  0.055572     24.000000
  0.074096  0.064834  0.055572     48.000000
  0.083358  0.064834  0.055572     48.000000
  0.092620  0.064834  0.055572     48.000000
  0.101882  0.064834  0.055572     48.000000
  0.111145  0.064834  0.055572     48.000000
  0.120407  0.064834  0.055572     24.000000
  0.074096  0.074096  0.055572     24.000000
  0.083358  0.074096  0.055572     48.000000
  0.092620  0.074096  0.055572     48.000000
  0.101882  0.074096  0.055572     48.000000
  0.111145  0.074096  0.055572     48.000000
  0.120407  0.074096  0.055572     24.000000
  0.083358  0.083358  0.055572     24.000000
  0.092620  0.083358  0.055572     48.000000
  0.101882  0.083358  0.055572     48.000000
  0.111145  0.083358  0.055572     48.000000
  0.120407  0.083358  0.055572     24.000000
  0.092620  0.092620  0.055572     24.000000
  0.101882  0.092620  0.055572     48.000000
  0.111145  0.092620  0.055572     48.000000
  0.120407  0.092620  0.055572     24.000000
  0.101882  0.101882  0.055572     24.000000
  0.111145  0.101882  0.055572     48.000000
  0.120407  0.101882  0.055572     24.000000
  0.111145  0.111145  0.055572     24.000000
  0.120407  0.111145  0.055572     24.000000
  0.120407  0.120407  0.055572      6.000000
  0.064834  0.064834  0.064834      8.000000
  0.074096  0.064834  0.064834     24.000000
  0.083358  0.064834  0.064834     24.000000
  0.092620  0.064834  0.064834     24.000000
  0.101882  0.064834  0.064834     24.000000
  0.111145  0.064834  0.064834     24.000000
  0.120407  0.064834  0.064834     12.000000
  0.074096  0.074096  0.064834     24.000000
  0.083358  0.074096  0.064834     48.000000
  0.092620  0.074096  0.064834     48.000000
  0.101882  0.074096  0.064834     48.000000
  0.111145  0.074096  0.064834     48.000000
  0.120407  0.074096  0.064834     24.000000
  0.083358  0.083358  0.064834     24.000000
  0.092620  0.083358  0.064834     48.000000
  0.101882  0.083358  0.064834     48.000000
  0.111145  0.083358  0.064834     48.000000
  0.120407  0.083358  0.064834     24.000000
  0.092620  0.092620  0.064834     24.000000
  0.101882  0.092620  0.064834     48.000000
  0.111145  0.092620  0.064834     48.000000
  0.120407  0.092620  0.064834     24.000000
  0.101882  0.101882  0.064834     24.000000
  0.111145  0.101882  0.064834     48.000000
  0.120407  0.101882  0.064834     24.000000
  0.111145  0.111145  0.064834     24.000000
  0.120407  0.111145  0.064834     24.000000
  0.120407  0.120407  0.064834      6.000000
  0.074096  0.074096  0.074096      8.000000
  0.083358  0.074096  0.074096     24.000000
  0.092620  0.074096  0.074096     24.000000
  0.101882  0.074096  0.074096     24.000000
  0.111145  0.074096  0.074096     24.000000
  0.120407  0.074096  0.074096     12.000000
  0.083358  0.083358  0.074096     24.000000
  0.092620  0.083358  0.074096     48.000000
  0.101882  0.083358  0.074096     48.000000
  0.111145  0.083358  0.074096     48.000000
  0.120407  0.083358  0.074096     24.000000
  0.092620  0.092620  0.074096     24.000000
  0.101882  0.092620  0.074096     48.000000
  0.111145  0.092620  0.074096     48.000000
  0.120407  0.092620  0.074096     24.000000
  0.101882  0.101882  0.074096     24.000000
  0.111145  0.101882  0.074096     48.000000
  0.120407  0.101882  0.074096     24.000000
  0.111145  0.111145  0.074096     24.000000
  0.120407  0.111145  0.074096     24.000000
  0.120407  0.120407  0.074096      6.000000
  0.083358  0.083358  0.083358      8.000000
  0.092620  0.083358  0.083358     24.000000
  0.101882  0.083358  0.083358     24.000000
  0.111145  0.083358  0.083358     24.000000
  0.120407  0.083358  0.083358     12.000000
  0.092620  0.092620  0.083358     24.000000
  0.101882  0.092620  0.083358     48.000000
  0.111145  0.092620  0.083358     48.000000
  0.120407  0.092620  0.083358     24.000000
  0.101882  0.101882  0.083358     24.000000
  0.111145  0.101882  0.083358     48.000000
  0.120407  0.101882  0.083358     24.000000
  0.111145  0.111145  0.083358     24.000000
  0.120407  0.111145  0.083358     24.000000
  0.120407  0.120407  0.083358      6.000000
  0.092620  0.092620  0.092620      8.000000
  0.101882  0.092620  0.092620     24.000000
  0.111145  0.092620  0.092620     24.000000
  0.120407  0.092620  0.092620     12.000000
  0.101882  0.101882  0.092620     24.000000
  0.111145  0.101882  0.092620     48.000000
  0.120407  0.101882  0.092620     24.000000
  0.111145  0.111145  0.092620     24.000000
  0.120407  0.111145  0.092620     24.000000
  0.120407  0.120407  0.092620      6.000000
  0.101882  0.101882  0.101882      8.000000
  0.111145  0.101882  0.101882     24.000000
  0.120407  0.101882  0.101882     12.000000
  0.111145  0.111145  0.101882     24.000000
  0.120407  0.111145  0.101882     24.000000
  0.120407  0.120407  0.101882      6.000000
  0.111145  0.111145  0.111145      8.000000
  0.120407  0.111145  0.111145     12.000000
  0.120407  0.120407  0.111145      6.000000
  0.120407  0.120407  0.120407      1.000000
 


--------------------------------------------------------------------------------------------------------




 Dimension of arrays:
   k-points           NKPTS =    560   k-points in BZ     NKDIM =    560   number of bands    NBANDS=     84
   number of dos      NEDOS =   2000   number of ions     NIONS =      4
   non local maximal  LDIM  =      6   non local SUM 2l+1 LMDIM =     18
   total plane-waves  NPLWV =  27000
   max r-space proj   IRMAX =   5581   max aug-charges    IRDMAX=  23255
   dimension x,y,z NGX =    30 NGY =   30 NGZ =   30
   dimension x,y,z NGXF=    60 NGYF=   60 NGZF=   60
   support grid    NGXF=    60 NGYF=   60 NGZF=   60
   ions per type =               4
   NGX,Y,Z   is equivalent  to a cutoff of  12.01, 12.01, 12.01 a.u.
   NGXF,Y,Z  is equivalent  to a cutoff of  24.02, 24.02, 24.02 a.u.

 SYSTEM =  unknown system                          
 POSCAR =  Au4                                     

 Startparameter for this run:
   NWRITE =      2    write-flag & timer
   PREC   = accura    normal or accurate (medium, high low for compatibility)
   ISTART =      0    job   : 0-new  1-cont  2-samecut
   ICHARG =      2    charge: 1-file 2-atom 10-const
   ISPIN  =      2    spin polarized calculation?
   LNONCOLLINEAR =      F non collinear calculations
   LSORBIT =      F    spin-orbit coupling
   INIWAV =      1    electr: 0-lowe 1-rand  2-diag
   LASPH  =      F    aspherical Exc in radial PAW
   METAGGA=      F    non-selfconsistent MetaGGA calc.

 Electronic Relaxation 1
   ENCUT  =  500.0 eV  36.75 Ry    6.06 a.u.   7.57  7.57  7.57*2*pi/ulx,y,z
   ENINI  =  500.0     initial cutoff
   ENAUG  =  356.7 eV  augmentation charge cutoff
   NELM   =    100;   NELMIN=  4; NELMDL= -5     # of ELM steps 
   EDIFF  = 0.1E-03   stopping-criterion for ELM
   LREAL  =      T    real-space projection
   NLSPLINE    = F    spline interpolate recip. space projectors
   LCOMPAT=      F    compatible to vasp.4.4
   GGA_COMPAT  = T    GGA compatible to vasp.4.4-vasp.4.6
   LMAXPAW     = -100 max onsite density
   LMAXMIX     =    2 max onsite mixed and CHGCAR
   VOSKOWN=      0    Vosko Wilk Nusair interpolation
   ROPT   =   -0.00025
 Ionic relaxation
   EDIFFG = 0.1E-02   stopping-criterion for IOM
   NSW    =      0    number of steps for IOM
   NBLOCK =      1;   KBLOCK =      1    inner block; outer block 
   IBRION =     -1    ionic relax: 0-MD 1-quasi-New 2-CG
   NFREE  =      0    steps in history (QN), initial steepest desc. (CG)
   ISIF   =      2    stress and relaxation
   IWAVPR =     10    prediction:  0-non 1-charg 2-wave 3-comb
   ISYM   =      2    0-nonsym 1-usesym 2-fastsym
   LCORR  =      T    Harris-Foulkes like correction to forces

   POTIM  = 0.5000    time-step for ionic-motion
   TEIN   =    0.0    initial temperature
   TEBEG  =    0.0;   TEEND  =   0.0 temperature during run
   SMASS  =  -3.00    Nose mass-parameter (am)
   estimated Nose-frequenzy (Omega)   =  0.10E-29 period in steps =****** mass=  -0.394E-27a.u.
   SCALEE = 1.0000    scale energy and forces
   NPACO  =    256;   APACO  = 16.0  distance and # of slots for P.C.
   PSTRESS=    0.0 pullay stress

  Mass of Ions in am
   POMASS = 196.97
  Ionic Valenz
   ZVAL   =  11.00
  Atomic Wigner-Seitz radii
   RWIGS  =  -1.00
  virtual crystal weights 
   VCA    =   1.00
   NELECT =      44.0000    total number of electrons
   NUPDOWN=      -1.0000    fix difference up-down

 DOS related values:
   EMIN   =  10.00;   EMAX   =-10.00  energy-range for DOS
   EFERMI =   0.00
   ISMEAR =     0;   SIGMA  =   0.30  broadening in eV -4-tet -1-fermi 0-gaus

 Electronic relaxation 2 (details)
   IALGO  =     68    algorithm
   LDIAG  =      T    sub-space diagonalisation (order eigenvalues)
   LSUBROT=      F    optimize rotation matrix (better conditioning)
   TURBO    =      0    0=normal 1=particle mesh
   IRESTART =      0    0=no restart 2=restart with 2 vectors
   NREBOOT  =      0    no. of reboots
   NMIN     =      0    reboot dimension
   EREF     =   0.00    reference energy to select bands
   IMIX   =      4    mixing-type and parameters
     AMIX     =   0.40;   BMIX     =  1.00
     AMIX_MAG =   1.60;   BMIX_MAG =  1.00
     AMIN     =   0.10
     WC   =   100.;   INIMIX=   1;  MIXPRE=   1;  MAXMIX= -45

 Intra band minimization:
   WEIMIN = 0.0000     energy-eigenvalue tresh-hold
   EBREAK =  0.30E-06  absolut break condition
   DEPER  =   0.30     relativ break condition  

   TIME   =   0.40     timestep for ELM

  volume/ion in A,a.u.               =      17.90       120.81
  Fermi-wavevector in a.u.,A,eV,Ry     =   1.391786  2.630094 26.355418  1.937069
  Thomas-Fermi vector in A             =   2.515592
 
 Write flags
   LWAVE        =      F    write WAVECAR
   LDOWNSAMPLE  =      F    k-point downsampling of WAVECAR
   LCHARG       =      F    write CHGCAR
   LVTOT        =      F    write LOCPOT, total local potential
   LVHAR        =      F    write LOCPOT, Hartree potential only
   LELF         =      F    write electronic localiz. function (ELF)
   LORBIT       =      0    0 simple, 1 ext, 2 COOP (PROOUT), +10 PAW based schemes


 Dipole corrections
   LMONO  =      F    monopole corrections only (constant potential shift)
   LDIPOL =      F    correct potential (dipole corrections)
   IDIPOL =      0    1-x, 2-y, 3-z, 4-all directions 
   EPSILON=  1.0000000 bulk dielectric constant

 Exchange correlation treatment:
   GGA     =    --    GGA type
   LEXCH   =     8    internal setting for exchange type
   VOSKOWN=      0    Vosko Wilk Nusair interpolation
   LHFCALC =     F    Hartree Fock is set to
   LHFONE  =     F    Hartree Fock one center treatment
   AEXX    =    0.0000 exact exchange contribution

 Linear response parameters
   LEPSILON=     F    determine dielectric tensor
   LRPA    =     F    only Hartree local field effects (RPA)
   LNABLA  =     F    use nabla operator in PAW spheres
   LVEL    =     F    velocity operator in full k-point grid
   LINTERFAST=   F  fast interpolation
   KINTER  =     0    interpolate to denser k-point grid
   CSHIFT  =0.1000    complex shift for real part using Kramers Kronig
   OMEGAMAX=  -1.0    maximum frequency
   DEG_THRESHOLD= 0.2000000E-02 threshold for treating states as degnerate
   RTIME   =   -0.100 relaxation time in fs
  (WPLASMAI=    0.000 imaginary part of plasma frequency in eV, 0.658/RTIME)
   DFIELD  = 0.0000000 0.0000000 0.0000000 field for delta impulse in time
 
 Orbital magnetization related:
   ORBITALMAG=     F  switch on orbital magnetization
   LCHIMAG   =     F  perturbation theory with respect to B field
   DQ        =  0.001000  dq finite difference perturbation B field
   LLRAUG    =     F  two centre corrections for induced B field



--------------------------------------------------------------------------------------------------------


 Static calculation
 charge density and potential will be updated during run
 spin polarized calculation
 RMM-DIIS sequential band-by-band and
  variant of blocked Davidson during initial phase
 perform sub-space diagonalisation
    before iterative eigenvector-optimisation
 modified Broyden-mixing scheme, WC =      100.0
 initial mixing is a Kerker type mixing with AMIX =  0.4000 and BMIX =      1.0000
 Hartree-type preconditioning will be used
 using additional bands           62
 real space projection scheme for non local part
 use partial core corrections
 calculate Harris-corrections to forces 
   (improved forces if not selfconsistent)
 use gradient corrections 
 use of overlap-Matrix (Vanderbilt PP)
 Gauss-broadening in eV      SIGMA  =   0.30


--------------------------------------------------------------------------------------------------------


  energy-cutoff  :      500.00
  volume of cell :       71.61
      direct lattice vectors                 reciprocal lattice vectors
     4.152598000  0.000000000  0.000000000     0.240813101  0.000000000  0.000000000
     0.000000000  4.152598000  0.000000000     0.000000000  0.240813101  0.000000000
     0.000000000  0.000000000  4.152598000     0.000000000  0.000000000  0.240813101

  length of vectors
     4.152598000  4.152598000  4.152598000     0.240813101  0.240813101  0.240813101


 
 k-points in units of 2pi/SCALE and weight: Automatic kpoint scheme                 
   0.00000000  0.00000000  0.00000000       0.000
   0.00926204  0.00000000  0.00000000       0.000
   0.01852408  0.00000000  0.00000000       0.000
   0.02778613  0.00000000  0.00000000       0.000
   0.03704817  0.00000000  0.00000000       0.000
   0.04631021  0.00000000  0.00000000       0.000
   0.05557225  0.00000000  0.00000000       0.000
   0.06483430  0.00000000  0.00000000       0.000
   0.07409634  0.00000000  0.00000000       0.000
   0.08335838  0.00000000  0.00000000       0.000
   0.09262042  0.00000000  0.00000000       0.000
   0.10188247  0.00000000  0.00000000       0.000
   0.11114451  0.00000000  0.00000000       0.000
   0.12040655  0.00000000  0.00000000       0.000
   0.00926204  0.00926204  0.00000000       0.001
   0.01852408  0.00926204  0.00000000       0.001
   0.02778613  0.00926204  0.00000000       0.001
   0.03704817  0.00926204  0.00000000       0.001
   0.04631021  0.00926204  0.00000000       0.001
   0.05557225  0.00926204  0.00000000       0.001
   0.06483430  0.00926204  0.00000000       0.001
   0.07409634  0.00926204  0.00000000       0.001
   0.08335838  0.00926204  0.00000000       0.001
   0.09262042  0.00926204  0.00000000       0.001
   0.10188247  0.00926204  0.00000000       0.001
   0.11114451  0.00926204  0.00000000       0.001
   0.12040655  0.00926204  0.00000000       0.001
   0.01852408  0.01852408  0.00000000       0.001
   0.02778613  0.01852408  0.00000000       0.001
   0.03704817  0.01852408  0.00000000       0.001
   0.04631021  0.01852408  0.00000000       0.001
   0.05557225  0.01852408  0.00000000       0.001
   0.06483430  0.01852408  0.00000000       0.001
   0.07409634  0.01852408  0.00000000       0.001
   0.08335838  0.01852408  0.00000000       0.001
   0.09262042  0.01852408  0.00000000       0.001
   0.10188247  0.01852408  0.00000000       0.001
   0.11114451  0.01852408  0.00000000       0.001
   0.12040655  0.01852408  0.00000000       0.001
   0.02778613  0.02778613  0.00000000       0.001
   0.03704817  0.02778613  0.00000000       0.001
   0.04631021  0.02778613  0.00000000       0.001
   0.05557225  0.02778613  0.00000000       0.001
   0.06483430  0.02778613  0.00000000       0.001
   0.07409634  0.02778613  0.00000000       0.001
   0.08335838  0.02778613  0.00000000       0.001
   0.09262042  0.02778613  0.00000000       0.001
   0.10188247  0.02778613  0.00000000       0.001
   0.11114451  0.02778613  0.00000000       0.001
   0.12040655  0.02778613  0.00000000       0.001
   0.03704817  0.03704817  0.00000000       0.001
   0.04631021  0.03704817  0.00000000       0.001
   0.05557225  0.03704817  0.00000000       0.001
   0.06483430  0.03704817  0.00000000       0.001
   0.07409634  0.03704817  0.00000000       0.001
   0.08335838  0.03704817  0.00000000       0.001
[...]
   55.852336    0.001286    0.001286    0.001286   -0.000000   -0.000000   -0.000000
   56.155881    0.001217    0.001217    0.001217   -0.000000   -0.000000   -0.000000
   56.459426    0.001153    0.001153    0.001153   -0.000000   -0.000000   -0.000000
   56.762972    0.001094    0.001094    0.001094   -0.000000   -0.000000   -0.000000
   57.066517    0.001039    0.001039    0.001039   -0.000000   -0.000000   -0.000000
   57.370062    0.000988    0.000988    0.000988   -0.000000   -0.000000   -0.000000
   57.673608    0.000940    0.000940    0.000940   -0.000000   -0.000000   -0.000000
   57.977153    0.000895    0.000895    0.000895   -0.000000   -0.000000   -0.000000
   58.280698    0.000853    0.000853    0.000853   -0.000000   -0.000000   -0.000000
   58.584243    0.000814    0.000814    0.000814   -0.000000   -0.000000   -0.000000
   58.887789    0.000777    0.000777    0.000777   -0.000000   -0.000000   -0.000000
   59.191334    0.000742    0.000742    0.000742   -0.000000   -0.000000   -0.000000
   59.494879    0.000710    0.000710    0.000710   -0.000000   -0.000000   -0.000000
   59.798425    0.000679    0.000679    0.000679   -0.000000   -0.000000   -0.000000
   60.101970    0.000650    0.000650    0.000650   -0.000000   -0.000000   -0.000000
   60.405515    0.000623    0.000623    0.000623   -0.000000   -0.000000   -0.000000

  frequency dependent      REAL DIELECTRIC FUNCTION (independent particle, no local field effects) current-current (2nd set in vasprun.xml)
     E(ev)        X           Y           Z          XY          YZ          ZX
  --------------------------------------------------------------------------------------------------------------
    0.000000    8.936909    8.936909    8.936909   -0.000000    0.000000   -0.000000
    0.303545    8.999875    8.999875    8.999875   -0.000000    0.000000   -0.000000
    0.607091    9.204842    9.204842    9.204842   -0.000000    0.000000   -0.000000
    0.910636    9.604705    9.604705    9.604705   -0.000000    0.000000   -0.000000
    1.214181   10.307074   10.307074   10.307074   -0.000000    0.000000   -0.000000
    1.517727   11.287684   11.287684   11.287684   -0.000000    0.000000   -0.000000
    1.821272   11.829414   11.829414   11.829414   -0.000000   -0.000000   -0.000000
    2.124817   11.050251   11.050251   11.050251   -0.000000   -0.000000   -0.000000
    2.428362    9.403599    9.403599    9.403599    0.000000    0.000000   -0.000000
    2.731908    7.653312    7.653312    7.653312    0.000000    0.000000   -0.000000
    3.035453    5.899367    5.899367    5.899367    0.000000   -0.000000   -0.000000
    3.338998    4.477766    4.477766    4.477766   -0.000000   -0.000000    0.000000
    3.642544    3.593320    3.593320    3.593320   -0.000000   -0.000000    0.000000
    3.946089    3.237016    3.237016    3.237016   -0.000000   -0.000000    0.000000
    4.249634    3.150475    3.150475    3.150475    0.000000    0.000000    0.000000
    4.553180    3.172437    3.172437    3.172437    0.000000    0.000000    0.000000
    4.856725    3.294556    3.294556    3.294556    0.000000    0.000000   -0.000000
    5.160270    3.404532    3.404532    3.404532   -0.000000   -0.000000   -0.000000
    5.463815    3.462901    3.462901    3.462901   -0.000000   -0.000000   -0.000000
    5.767361    3.460369    3.460369    3.460369    0.000000   -0.000000    0.000000
    6.070906    3.350455    3.350455    3.350455   -0.000000   -0.000000   -0.000000
    6.374451    2.982361    2.982361    2.982361   -0.000000   -0.000000   -0.000000
    6.677997    2.457767    2.457767    2.457767   -0.000000   -0.000000    0.000000
    6.981542    1.970639    1.970639    1.970639    0.000000    0.000000    0.000000
    7.285087    1.450670    1.450670    1.450670    0.000000    0.000000    0.000000
    7.588633    1.070396    1.070396    1.070396    0.000000   -0.000000    0.000000
    7.892178    0.785466    0.785466    0.785466    0.000000    0.000000   -0.000000
    8.195723    0.615541    0.615541    0.615541    0.000000    0.000000    0.000000
    8.499268    0.491990    0.491990    0.491990    0.000000    0.000000    0.000000
    8.802814    0.491752    0.491752    0.491752    0.000000   -0.000000    0.000000
    9.106359    0.562453    0.562453    0.562453   -0.000000   -0.000000    0.000000
    9.409904    0.723709    0.723709    0.723709   -0.000000   -0.000000    0.000000
    9.713450    0.924096    0.924096    0.924096    0.000000    0.000000   -0.000000
   10.016995    1.107257    1.107257    1.107257    0.000000    0.000000    0.000000
   10.320540    1.236697    1.236697    1.236697   -0.000000    0.000000    0.000000
   10.624086    1.331278    1.331278    1.331278    0.000000    0.000000    0.000000
   10.927631    1.438404    1.438404    1.438404    0.000000    0.000000    0.000000
   11.231176    1.522336    1.522336    1.522336    0.000000   -0.000000    0.000000
   11.534722    1.529392    1.529392    1.529392   -0.000000    0.000000   -0.000000
   11.838267    1.429031    1.429031    1.429031   -0.000000   -0.000000   -0.000000
   12.141812    1.294607    1.294607    1.294607    0.000000    0.000000    0.000000
   12.445357    1.131528    1.131528    1.131528    0.000000    0.000000    0.000000
   12.748903    1.027838    1.027838    1.027838   -0.000000    0.000000    0.000000
   13.052448    0.986234    0.986234    0.986234   -0.000000   -0.000000   -0.000000
   13.355993    0.956170    0.956170    0.956170    0.000000    0.000000    0.000000
   13.659539    0.957099    0.957099    0.957099    0.000000    0.000000    0.000000
   13.963084    0.953712    0.953712    0.953712    0.000000    0.000000   -0.000000
   14.266629    0.993186    0.993186    0.993186    0.000000    0.000000    0.000000
   14.570175    0.999839    0.999839    0.999839   -0.000000    0.000000    0.000000
   14.873720    1.041403    1.041403    1.041403   -0.000000    0.000000    0.000000
   15.177265    1.088738    1.088738    1.088738   -0.000000    0.000000    0.000000
   15.480810    1.099851    1.099851    1.099851   -0.000000    0.000000    0.000000
   15.784356    1.151987    1.151987    1.151987    0.000000    0.000000    0.000000
   16.087901    1.143229    1.143229    1.143229    0.000000   -0.000000    0.000000
   16.391446    1.158018    1.158018    1.158018    0.000000    0.000000    0.000000
   16.694992    1.218831    1.218831    1.218831    0.000000   -0.000000    0.000000
   16.998537    1.280932    1.280932    1.280932    0.000000   -0.000000    0.000000
   17.302082    1.425325    1.425325    1.425325    0.000000   -0.000000    0.000000
   17.605628    1.615889    1.615889    1.615889    0.000000   -0.000000    0.000000
   17.909173    1.850879    1.850879    1.850879    0.000000   -0.000000    0.000000
   18.212718    2.019118    2.019118    2.019118    0.000000    0.000000    0.000000
   18.516263    1.808933    1.808933    1.808933    0.000000   -0.000000    0.000000
   18.819809    1.300599    1.300599    1.300599   -0.000000    0.000000   -0.000000
   19.123354    1.010627    1.010627    1.010627   -0.000000    0.000000   -0.000000
   19.426899    0.763090    0.763090    0.763090    0.000000    0.000000    0.000000
   19.730445    0.418037    0.418037    0.418037   -0.000000   -0.000000    0.000000
   20.033990    0.093124    0.093124    0.093124    0.000000   -0.000000   -0.000000
   20.337535    0.083492    0.083492    0.083492    0.000000   -0.000000   -0.000000
   20.641081    0.113076    0.113076    0.113076   -0.000000   -0.000000   -0.000000
   20.944626    0.075288    0.075288    0.075288   -0.000000   -0.000000   -0.000000
   21.248171    0.039160    0.039160    0.039160    0.000000   -0.000000    0.000000
   21.551717    0.035795    0.035795    0.035795    0.000000   -0.000000    0.000000
   21.855262    0.028071    0.028071    0.028071   -0.000000   -0.000000   -0.000000
   22.158807    0.047028    0.047028    0.047028    0.000000   -0.000000    0.000000
   22.462352    0.107029    0.107029    0.107029    0.000000    0.000000    0.000000
   22.765898    0.164207    0.164207    0.164207   -0.000000   -0.000000   -0.000000
   23.069443    0.234783    0.234783    0.234783   -0.000000   -0.000000   -0.000000
   23.372988    0.336276    0.336276    0.336276   -0.000000    0.000000   -0.000000
   23.676534    0.434589    0.434589    0.434589   -0.000000   -0.000000   -0.000000
   23.980079    0.509549    0.509549    0.509549   -0.000000   -0.000000   -0.000000
   24.283624    0.564397    0.564397    0.564397    0.000000    0.000000    0.000000
   24.587170    0.640172    0.640172    0.640172    0.000000    0.000000    0.000000
   24.890715    0.749311    0.749311    0.749311    0.000000    0.000000    0.000000
   25.194260    0.850967    0.850967    0.850967    0.000000    0.000000    0.000000
   25.497805    0.867755    0.867755    0.867755    0.000000    0.000000    0.000000
   25.801351    0.841864    0.841864    0.841864    0.000000    0.000000   -0.000000
   26.104896    0.869110    0.869110    0.869110    0.000000    0.000000   -0.000000
   26.408441    0.957098    0.957098    0.957098    0.000000    0.000000   -0.000000
   26.711987    1.038292    1.038292    1.038292    0.000000    0.000000   -0.000000
   27.015532    1.048116    1.048116    1.048116    0.000000    0.000000    0.000000
   27.319077    0.940244    0.940244    0.940244   -0.000000   -0.000000    0.000000
   27.622623    0.802008    0.802008    0.802008   -0.000000   -0.000000    0.000000
   27.926168    0.701534    0.701534    0.701534   -0.000000   -0.000000    0.000000
   28.229713    0.658917    0.658917    0.658917    0.000000    0.000000   -0.000000
   28.533258    0.599679    0.599679    0.599679    0.000000    0.000000   -0.000000
   28.836804    0.454952    0.454952    0.454952   -0.000000   -0.000000    0.000000
   29.140349    0.267010    0.267010    0.267010   -0.000000   -0.000000    0.000000
   29.443894    0.142158    0.142158    0.142158   -0.000000   -0.000000   -0.000000
   29.747440    0.140041    0.140041    0.140041    0.000000    0.000000    0.000000
   30.050985    0.208514    0.208514    0.208514    0.000000    0.000000    0.000000
   30.354530    0.293708    0.293708    0.293708   -0.000000    0.000000   -0.000000
   30.658076    0.384249    0.384249    0.384249    0.000000    0.000000   -0.000000
   30.961621    0.451551    0.451551    0.451551   -0.000000    0.000000   -0.000000
   31.265166    0.490862    0.490862    0.490862   -0.000000    0.000000   -0.000000
   31.568711    0.516437    0.516437    0.516437   -0.000000    0.000000   -0.000000
   31.872257    0.536153    0.536153    0.536153    0.000000    0.000000    0.000000
   32.175802    0.545646    0.545646    0.545646   -0.000000   -0.000000   -0.000000
   32.479347    0.530430    0.530430    0.530430   -0.000000    0.000000   -0.000000
   32.782893    0.538738    0.538738    0.538738    0.000000    0.000000    0.000000
   33.086438    0.587423    0.587423    0.587423   -0.000000   -0.000000    0.000000
   33.389983    0.642045    0.642045    0.642045    0.000000    0.000000   -0.000000
   33.693529    0.670835    0.670835    0.670835   -0.000000   -0.000000   -0.000000
   33.997074    0.680063    0.680063    0.680063   -0.000000   -0.000000    0.000000
   34.300619    0.702443    0.702443    0.702443   -0.000000   -0.000000   -0.000000
   34.604165    0.722309    0.722309    0.722309   -0.000000   -0.000000    0.000000
   34.907710    0.721794    0.721794    0.721794    0.000000   -0.000000   -0.000000
   35.211255    0.694239    0.694239    0.694239   -0.000000   -0.000000    0.000000
   35.514800    0.664616    0.664616    0.664616   -0.000000   -0.000000   -0.000000
   35.818346    0.651469    0.651469    0.651469   -0.000000   -0.000000   -0.000000
   36.121891    0.652846    0.652846    0.652846   -0.000000   -0.000000   -0.000000
   36.425436    0.666207    0.666207    0.666207   -0.000000   -0.000000   -0.000000
   36.728982    0.697277    0.697277    0.697277   -0.000000   -0.000000   -0.000000
   37.032527    0.745304    0.745304    0.745304    0.000000   -0.000000    0.000000
   37.336072    0.772237    0.772237    0.772237   -0.000000   -0.000000    0.000000
   37.639618    0.789701    0.789701    0.789701   -0.000000   -0.000000    0.000000
   37.943163    0.824969    0.824969    0.824969   -0.000000   -0.000000   -0.000000
   38.246708    0.883690    0.883690    0.883690   -0.000000   -0.000000   -0.000000
   38.550253    0.950519    0.950519    0.950519   -0.000000   -0.000000   -0.000000
   38.853799    1.050295    1.050295    1.050295   -0.000000   -0.000000   -0.000000
   39.157344    1.137911    1.137911    1.137911   -0.000000   -0.000000   -0.000000
   39.460889    1.164875    1.164875    1.164875   -0.000000   -0.000000   -0.000000
   39.764435    1.177202    1.177202    1.177202   -0.000000    0.000000   -0.000000
   40.067980    1.220945    1.220945    1.220945   -0.000000   -0.000000   -0.000000
   40.371525    1.325587    1.325587    1.325587   -0.000000   -0.000000   -0.000000
   40.675071    1.466867    1.466867    1.466867   -0.000000   -0.000000   -0.000000
   40.978616    1.445679    1.445679    1.445679   -0.000000   -0.000000   -0.000000
   41.282161    1.113431    1.113431    1.113431    0.000000    0.000000   -0.000000
   41.585706    0.765567    0.765567    0.765567    0.000000    0.000000    0.000000
   41.889252    0.641526    0.641526    0.641526   -0.000000   -0.000000    0.000000
   42.192797    0.487574    0.487574    0.487574   -0.000000    0.000000    0.000000
   42.496342    0.304252    0.304252    0.304252    0.000000   -0.000000   -0.000000
   42.799888    0.230017    0.230017    0.230017   -0.000000   -0.000000   -0.000000
   43.103433    0.174050    0.174050    0.174050   -0.000000   -0.000000   -0.000000
   43.406978   -0.039282   -0.039282   -0.039282   -0.000000    0.000000   -0.000000
   43.710524   -0.365751   -0.365751   -0.365751   -0.000000   -0.000000   -0.000000
   44.014069   -0.671304   -0.671304   -0.671304    0.000000   -0.000000    0.000000
   44.317614   -0.787820   -0.787820   -0.787820    0.000000    0.000000    0.000000
   44.621160   -0.734235   -0.734235   -0.734235    0.000000    0.000000    0.000000
   44.924705   -0.699579   -0.699579   -0.699579    0.000000    0.000000    0.000000
   45.228250   -0.715751   -0.715751   -0.715751    0.000000    0.000000    0.000000
   45.531795   -0.704336   -0.704336   -0.704336    0.000000    0.000000    0.000000
   45.835341   -0.627076   -0.627076   -0.627076    0.000000   -0.000000    0.000000
   46.138886   -0.515547   -0.515547   -0.515547    0.000000    0.000000    0.000000
   46.442431   -0.394890   -0.394890   -0.394890    0.000000    0.000000    0.000000
   46.745977   -0.282853   -0.282853   -0.282853    0.000000    0.000000    0.000000
   47.049522   -0.188014   -0.188014   -0.188014    0.000000    0.000000    0.000000
   47.353067   -0.110607   -0.110607   -0.110607    0.000000    0.000000    0.000000
   47.656613   -0.047636   -0.047636   -0.047636    0.000000    0.000000    0.000000
   47.960158    0.004706    0.004706    0.004706    0.000000    0.000000    0.000000
   48.263703    0.052535    0.052535    0.052535    0.000000    0.000000    0.000000
   48.567248    0.096470    0.096470    0.096470    0.000000    0.000000    0.000000
   48.870794    0.135346    0.135346    0.135346    0.000000    0.000000    0.000000
   49.174339    0.170014    0.170014    0.170014    0.000000    0.000000    0.000000
   49.477884    0.201165    0.201165    0.201165    0.000000    0.000000    0.000000
   49.781430    0.229439    0.229439    0.229439    0.000000    0.000000    0.000000
   50.084975    0.255317    0.255317    0.255317    0.000000    0.000000    0.000000
   50.388520    0.279161    0.279161    0.279161    0.000000    0.000000    0.000000
   50.692066    0.301253    0.301253    0.301253    0.000000    0.000000    0.000000
   50.995611    0.321816    0.321816    0.321816    0.000000    0.000000    0.000000
   51.299156    0.341031    0.341031    0.341031    0.000000    0.000000    0.000000
   51.602701    0.359048    0.359048    0.359048    0.000000    0.000000    0.000000
   51.906247    0.375995    0.375995    0.375995    0.000000    0.000000    0.000000
   52.209792    0.391978    0.391978    0.391978    0.000000    0.000000    0.000000
   52.513337    0.407091    0.407091    0.407091    0.000000    0.000000    0.000000
   52.816883    0.421411    0.421411    0.421411    0.000000    0.000000    0.000000
   53.120428    0.435010    0.435010    0.435010    0.000000    0.000000    0.000000
   53.423973    0.447947    0.447947    0.447947    0.000000    0.000000    0.000000
   53.727519    0.460275    0.460275    0.460275    0.000000    0.000000    0.000000
   54.031064    0.472044    0.472044    0.472044    0.000000    0.000000    0.000000
   54.334609    0.483294    0.483294    0.483294    0.000000    0.000000    0.000000
   54.638155    0.494063    0.494063    0.494063    0.000000    0.000000    0.000000
   54.941700    0.504385    0.504385    0.504385    0.000000    0.000000    0.000000
   55.245245    0.514291    0.514291    0.514291    0.000000    0.000000    0.000000
   55.548790    0.523807    0.523807    0.523807    0.000000    0.000000    0.000000
   55.852336    0.532960    0.532960    0.532960    0.000000    0.000000    0.000000
   56.155881    0.541771    0.541771    0.541771    0.000000    0.000000    0.000000
   56.459426    0.550262    0.550262    0.550262    0.000000    0.000000    0.000000
   56.762972    0.558451    0.558451    0.558451    0.000000    0.000000    0.000000
   57.066517    0.566356    0.566356    0.566356    0.000000    0.000000    0.000000
   57.370062    0.573992    0.573992    0.573992    0.000000    0.000000    0.000000
   57.673608    0.581374    0.581374    0.581374    0.000000    0.000000    0.000000
   57.977153    0.588517    0.588517    0.588517    0.000000    0.000000    0.000000
   58.280698    0.595431    0.595431    0.595431    0.000000    0.000000    0.000000
   58.584243    0.602129    0.602129    0.602129    0.000000    0.000000    0.000000
   58.887789    0.608622    0.608622    0.608622    0.000000    0.000000    0.000000
   59.191334    0.614920    0.614920    0.614920    0.000000    0.000000    0.000000
   59.494879    0.621032    0.621032    0.621032    0.000000    0.000000    0.000000
   59.798425    0.626966    0.626966    0.626966    0.000000    0.000000    0.000000
   60.101970    0.632731    0.632731    0.632731    0.000000    0.000000    0.000000
   60.405515    0.638335    0.638335    0.638335    0.000000    0.000000    0.000000
 
 The outermost node in the dielectric function lies at epsilon=  48.0


--------------------------------------------------------------------------------------------------------


    OPTICS:  cpu time   47.4695: real time   47.6488
    4ORBIT:  cpu time    0.0000: real time    0.0000

 total amount of memory used by VASP MPI-rank0   142732. kBytes
=======================================================================

   base      :      30000. kBytes
   nonlr-proj:       3784. kBytes
   fftplans  :        469. kBytes
   grid      :       2986. kBytes
   one-center:        124. kBytes
   wavefun   :     105369. kBytes
 
  
  
 General timing and accounting informations for this job:
 ========================================================
  
                  Total CPU time used (sec):      710.798
                            User time (sec):      699.071
                          System time (sec):       11.727
                         Elapsed time (sec):      716.035
  
                   Maximum memory used (kb):      501712.
                   Average memory used (kb):           0.
  
                          Minor page faults:        58686
                          Major page faults:            0
                 Voluntary context switches:        13382
